# vtk DataFile Version 1.0
Net Charge Density
ASCII
DATASET STRUCTURED_POINTS
DIMENSIONS 256 128 1
ORIGIN 0 0 0
SPACING 0.15625 0.15625 1
POINT_DATA 32768
SCALARS rhonet float
LOOKUP_TABLE default
-3.89607e-06
-9.51274e-05
0.000144792
9.63222e-05
3.56847e-05
0.000120451
-0.000118445
9.18577e-05
0.000154216
2.28991e-05
-3.75608e-05
0.000108726
0.00010382
7.94451e-05
0.000109347
4.99607e-05
8.77433e-05
0.000140235
4.05877e-05
-6.79098e-05
-6.4068e-06
0.000141859
0.000144767
4.77826e-05
3.72683e-05
2.07424e-05
7.74219e-05
9.05894e-05
-1.35213e-05
-7.27426e-05
5.23026e-05
3.97232e-05
4.36689e-05
6.9008e-05
1.24413e-05
0.000171713
1.68075e-05
7.28727e-05
7.73575e-05
-5.53019e-06
2.2932e-05
6.83218e-06
0.000136404
9.39815e-05
2.09396e-05
1.86833e-05
-3.16133e-05
6.95544e-05
0.000116214
7.88725e-05
-1.20075e-05
2.49781e-05
8.34425e-05
0.000148995
3.5595e-05
1.75037e-05
0.000151011
-5.17473e-05
5.67851e-06
7.16955e-05
5.02793e-05
6.06016e-05
7.16757e-06
8.01797e-05
8.22493e-05
-8.03833e-05
4.41822e-05
0.000136175
4.09953e-05
4.82838e-05
7.92335e-05
3.67111e-05
-2.69156e-05
4.96677e-05
-1.15018e-07
5.11558e-05
4.20859e-05
-3.83079e-05
9.21617e-05
0.000106615
8.71842e-05
2.54081e-05
7.49615e-05
0.000101105
4.5468e-05
-4.48001e-06
-1.6691e-05
6.70489e-05
0.000119669
-2.34881e-05
9.00029e-05
-1.47951e-05
-3.90527e-05
-6.21448e-06
-8.99178e-05
5.22718e-05
0.000157961
2.40974e-05
9.16881e-05
-2.49445e-05
0.000157724
9.09186e-05
-3.16976e-06
9.47256e-05
3.90385e-05
0.000130971
-2.58442e-07
-6.85496e-05
2.66219e-06
7.39994e-05
0.00013342
5.79278e-05
2.02983e-05
3.31155e-05
8.04218e-05
4.36595e-05
1.22656e-05
7.49687e-05
5.09599e-05
4.32276e-05
-3.98805e-05
-3.45629e-05
4.04443e-05
2.44896e-05
0.00011572
6.60876e-05
1.82549e-05
8.13094e-05
1.99641e-05
-1.88099e-05
0.000119796
9.2616e-05
-2.24414e-06
3.77488e-05
2.0324e-05
6.79679e-06
4.46094e-05
-3.19165e-05
4.68967e-05
-1.15032e-05
-4.98407e-05
2.32952e-05
2.09619e-05
0.000160761
9.88222e-05
2.06335e-06
0.000137836
1.15247e-05
-3.11241e-05
0.000132418
1.78274e-05
2.91315e-05
0.000108428
-8.34558e-06
3.45046e-05
4.32306e-05
5.74673e-06
3.42712e-05
-5.27641e-06
1.75426e-05
7.67782e-05
2.50082e-05
0.000112709
-2.20693e-05
3.25851e-05
2.5523e-05
5.84617e-05
-6.12723e-05
0.000105448
0.000137296
2.50291e-05
4.32238e-05
7.45818e-05
0.000111579
-2.02683e-05
-8.13336e-06
8.72933e-05
-8.2322e-05
1.15572e-05
3.31802e-05
8.87692e-05
-7.06001e-05
-3.1811e-05
5.65418e-06
1.04991e-05
7.98533e-05
4.14198e-05
7.20926e-05
0.000102554
7.46853e-05
2.48839e-05
0.000198125
8.1612e-05
-6.56995e-05
6.24198e-05
0.000201229
4.75219e-05
8.32754e-05
7.86667e-05
-1.63086e-05
5.95988e-05
0.00014917
4.39014e-05
3.83349e-05
-1.00755e-05
6.977e-05
-5.98878e-05
5.34233e-05
6.86799e-05
8.57899e-05
6.81023e-05
0.000137439
0.000106097
-2.40526e-05
0.000111081
-0.00013128
0.000102691
9.90947e-05
-5.28729e-05
-3.79214e-05
8.69744e-05
0.000114877
0.000176992
3.40521e-05
7.95295e-05
5.67446e-05
-3.69134e-05
-1.51404e-05
8.69038e-05
6.8607e-05
6.22799e-06
4.16546e-05
2.36379e-05
2.60696e-05
0.000121307
-3.557e-05
-2.05769e-05
2.75011e-05
5.94514e-05
8.97911e-06
1.84989e-05
8.66937e-05
-5.82669e-05
-3.06987e-07
2.65902e-05
-1.44092e-05
-2.2196e-05
-3.95465e-05
0.000128655
-4.29619e-06
2.10482e-05
-3.85127e-05
0.000102294
2.14383e-05
2.40528e-05
4.18617e-05
-0.0001049
2.47048e-05
-6.30281e-05
-2.51192e-05
-2.38867e-05
5.12257e-05
-2.60446e-05
-7.57636e-05
4.98928e-05
-6.60461e-05
-4.29001e-05
2.3341e-05
-5.99083e-05
-8.02728e-05
3.00189e-06
-4.24266e-05
4.66243e-06
1.08911e-05
-2.15754e-05
-4.0601e-06
-5.82075e-05
-6.74943e-05
-0.000106138
-1.79205e-05
-2.00453e-05
-5.72716e-05
-2.52763e-05
7.73044e-06
-3.07413e-05
-8.53869e-05
-3.53891e-05
-8.36106e-06
2.7442e-05
-7.95686e-05
-6.67478e-05
2.31331e-05
-0.000103178
-3.3788e-05
1.98347e-05
-8.20335e-05
-5.15862e-05
-4.38413e-05
8.67248e-06
3.55993e-05
-2.47125e-05
4.87384e-06
-0.000112385
-3.15171e-05
3.88798e-05
-3.39411e-05
-6.56128e-05
-4.1193e-05
-3.17375e-05
2.98235e-05
-2.85318e-05
-3.54571e-05
-2.34868e-05
-0.000116111
1.48101e-05
-3.37932e-05
4.56308e-05
-5.1269e-05
-5.72854e-05
-3.73458e-05
-3.01474e-05
-6.05674e-05
-1.00291e-05
-7.96347e-05
-0.000109192
1.21042e-05
-4.39815e-05
9.01753e-06
-1.8436e-05
1.72422e-05
-5.13545e-05
-1.04336e-05
4.76098e-05
-2.54941e-05
5.74088e-05
2.16416e-07
-3.24124e-05
-5.04437e-05
-8.22556e-05
2.8483e-05
2.44664e-05
-6.1695e-05
-0.000158637
-4.16976e-05
-6.58911e-08
-1.69143e-05
8.77364e-06
5.33122e-05
3.15602e-06
-1.07943e-05
2.47136e-05
-5.96559e-06
3.43234e-05
-2.73113e-05
-6.84685e-06
-1.89489e-06
-4.36434e-05
-0.000106617
-3.96518e-05
-2.96774e-05
-3.55599e-05
1.6422e-05
-5.91249e-05
-4.27185e-05
-1.06706e-06
-5.99946e-06
5.43519e-05
-3.54243e-05
-7.13803e-05
-7.13194e-05
4.01699e-05
1.15474e-05
-5.23519e-05
-1.11547e-05
9.64501e-06
3.18993e-05
-8.57747e-05
1.39618e-05
-6.13792e-05
-7.74197e-06
-3.48636e-05
-1.67096e-05
-4.55661e-05
-6.9603e-05
1.7025e-05
-4.88107e-05
-2.07964e-05
1.59817e-05
-1.05534e-05
-2.35444e-05
-1.24412e-05
-3.31048e-05
-4.60125e-05
-1.33581e-05
-4.22457e-05
-8.32323e-06
-5.94475e-05
-7.82575e-05
8.69716e-06
-2.01969e-06
-8.38249e-05
1.05486e-05
-3.22355e-05
-4.36764e-05
-0.000117681
-8.72556e-06
-3.99579e-05
-3.83083e-05
-7.16739e-05
9.37097e-06
3.00051e-05
-1.70406e-05
-2.39995e-05
-1.85589e-06
-5.11226e-05
-2.02565e-05
-8.1349e-05
-6.40948e-05
3.62425e-05
-8.02709e-05
-7.56362e-06
2.37455e-05
2.21167e-05
-5.27812e-05
-2.42505e-06
3.60705e-05
-9.46564e-05
1.02374e-05
-2.2148e-05
3.97031e-05
-4.13514e-05
-2.55484e-05
-5.70051e-06
3.04059e-05
-6.90699e-05
-4.77679e-05
3.67508e-05
-4.79631e-06
2.05892e-06
-4.8656e-05
-0.000107547
-6.60247e-05
-2.66002e-05
-2.24793e-05
-9.32987e-06
-1.88574e-05
-0.000101449
6.32298e-06
3.69594e-05
4.61051e-06
-1.0849e-05
-2.36548e-05
-8.50845e-05
-3.9091e-05
4.81101e-05
-6.97782e-06
-7.51882e-05
-6.46282e-05
-4.37897e-05
3.07562e-05
-5.53511e-05
1.83028e-06
-5.1216e-05
9.71671e-05
1.17975e-05
-4.14064e-05
-5.22409e-05
-4.83998e-05
-4.73994e-05
3.21254e-05
-3.50834e-05
-7.29871e-05
1.69827e-06
-2.53875e-05
-1.98885e-05
4.50586e-06
-1.732e-05
7.05677e-05
5.70895e-05
-6.70662e-05
-3.48982e-05
-2.73383e-05
-7.0205e-05
-2.06064e-05
2.42676e-05
8.58865e-05
-8.70347e-05
6.93486e-06
-4.34532e-05
-3.627e-05
6.90317e-05
3.75883e-05
-6.27579e-05
-4.99119e-06
2.55419e-05
-5.11213e-05
2.26243e-05
-1.34822e-05
-4.8021e-05
-1.98239e-05
3.0552e-06
3.73246e-05
3.4268e-05
-1.23484e-05
-2.31676e-05
-0.000132199
-1.67172e-07
-7.60634e-06
5.12579e-05
-7.35314e-06
-7.3632e-05
5.01657e-06
-3.30425e-05
-1.99128e-06
5.00253e-05
-7.79761e-06
-2.33891e-05
-8.48004e-06
1.05426e-06
-1.92293e-05
7.13236e-05
-5.15232e-05
7.82323e-06
3.11631e-05
6.53437e-05
-4.67901e-05
-2.90639e-05
-1.14907e-05
-2.49571e-05
-9.34284e-05
-2.04819e-05
3.51591e-05
4.88632e-05
3.64077e-05
-1.64526e-05
3.777e-05
6.1458e-05
-4.75247e-05
4.48453e-05
4.40084e-05
9.82243e-06
-5.10868e-05
1.23072e-05
2.3444e-05
7.04299e-05
4.96684e-05
-3.57151e-05
2.25289e-05
5.27385e-06
-2.51166e-05
4.80089e-05
3.40396e-05
2.1163e-05
-2.89198e-05
-7.34264e-05
2.16754e-05
3.48729e-05
1.4212e-06
-4.63355e-05
1.81713e-06
-1.6571e-05
5.22437e-05
1.9271e-05
-4.25106e-05
-9.05945e-05
6.88399e-06
2.94286e-05
9.43267e-06
3.90759e-05
-4.01761e-05
2.79772e-05
-3.307e-05
9.02752e-05
1.87057e-05
2.19357e-05
-2.38942e-05
3.89216e-05
7.95068e-05
-1.43005e-06
-1.07868e-05
-4.31228e-05
-5.63427e-05
3.65557e-05
5.69131e-06
-2.97661e-05
3.1851e-05
-3.75106e-05
-1.97687e-05
6.36957e-05
5.06418e-05
-4.80586e-05
-4.18769e-05
-9.31206e-06
-2.63561e-05
-1.33659e-05
5.09446e-05
7.41067e-05
-1.38807e-05
-5.52131e-05
-6.02391e-05
2.25466e-05
4.01654e-05
-3.5647e-05
4.60863e-05
6.04028e-05
1.0042e-05
-2.72853e-05
-6.8402e-05
1.03844e-05
-3.90664e-05
-6.67311e-05
1.89329e-05
-3.8665e-05
-7.26085e-05
1.55343e-05
3.44662e-05
-9.18156e-06
-2.52386e-05
3.49985e-05
6.71943e-05
-7.81426e-06
-2.34847e-05
1.90873e-05
-3.45566e-05
-3.24706e-06
3.17625e-05
-4.33623e-05
-4.4457e-05
-1.2916e-05
6.1907e-05
-1.54721e-05
-1.92424e-05
-9.33534e-07
1.07805e-05
-2.67866e-05
6.43285e-05
6.28177e-07
3.16119e-05
-3.4544e-05
-2.02109e-05
3.29809e-05
-8.92964e-06
-5.33775e-05
-6.58381e-05
-1.97738e-05
2.38325e-06
3.65474e-05
8.36782e-06
-1.87836e-06
1.48288e-05
-2.75736e-05
4.24772e-05
2.79525e-05
9.69107e-05
6.65832e-05
1.94266e-05
1.45669e-05
-1.36635e-05
5.90173e-05
5.77694e-05
-3.53304e-05
8.65564e-05
-1.88481e-05
-2.1022e-05
-5.39361e-05
1.12342e-05
-1.22989e-05
7.03163e-05
-1.07868e-05
6.14906e-06
5.7793e-05
3.47514e-05
-3.56393e-05
-5.85616e-06
4.3827e-05
2.99957e-05
1.48881e-05
3.09444e-06
-6.29972e-05
1.44138e-05
-9.34461e-05
4.10879e-05
-3.3416e-05
-7.29718e-05
6.78643e-06
-4.31377e-05
3.26065e-05
-5.40694e-05
-3.51891e-05
-7.38096e-06
-3.46784e-05
7.78132e-06
5.28588e-05
1.6699e-05
-1.61515e-06
7.61892e-05
-2.8956e-06
5.27899e-05
3.3099e-05
2.69056e-05
3.20115e-05
-4.14012e-05
-7.91214e-05
6.70389e-06
-3.71061e-05
3.38536e-07
3.12878e-05
2.55895e-05
4.62431e-05
-7.34429e-06
3.85575e-05
-1.8248e-05
8.60399e-05
-3.51763e-05
-2.42104e-05
-2.44785e-05
3.96878e-05
3.96363e-05
-5.59608e-06
-1.5982e-05
5.26491e-05
-3.1282e-05
-9.51323e-06
1.32089e-05
3.03083e-05
4.01442e-05
-6.21299e-05
6.55756e-06
-4.02804e-05
7.68164e-05
-2.30569e-05
2.42703e-06
-2.36239e-05
-7.65675e-06
1.05589e-06
-7.58456e-05
1.89049e-05
4.24925e-05
2.73332e-06
-4.68809e-05
-0.000111356
2.32973e-05
1.92827e-05
1.66951e-06
4.11419e-05
-1.26262e-05
3.11423e-06
-2.15394e-05
-7.41894e-05
3.57798e-05
1.81663e-05
-4.43208e-05
1.38059e-05
2.49422e-05
-1.40064e-05
-5.45266e-05
-1.59668e-05
4.84831e-05
-4.49957e-06
-0.000139602
5.79737e-05
3.08059e-05
0.000100899
-3.72754e-05
3.8272e-05
1.96723e-05
-2.19459e-05
-3.16997e-05
-3.15021e-05
5.79796e-05
8.84754e-05
-9.06712e-06
-5.99885e-05
9.2187e-06
8.46398e-06
-1.88593e-08
-2.07848e-05
-3.90375e-05
0.000130275
-3.43213e-05
-4.70523e-05
5.37114e-05
-2.7963e-06
2.82272e-06
-3.7919e-05
-6.05406e-05
4.75423e-05
4.84359e-05
-1.75373e-05
3.74636e-05
-5.19105e-05
4.18172e-05
3.39497e-05
-6.99726e-05
2.7366e-05
3.88061e-05
1.6781e-05
-5.26784e-05
6.28687e-05
-2.19624e-05
-4.31006e-05
-7.40332e-06
-2.66789e-05
4.25467e-05
3.64985e-06
2.75731e-05
-4.73876e-05
-6.4373e-06
3.03095e-05
-2.26299e-05
-8.19338e-05
-4.9582e-05
1.36232e-05
3.36368e-05
4.53519e-05
-3.78168e-05
6.72049e-05
-2.02062e-05
-6.23034e-05
4.747e-05
4.6276e-05
1.24052e-05
3.82882e-05
2.15033e-05
5.87145e-05
-6.50006e-05
-4.25666e-05
-1.34124e-05
4.39062e-05
4.78704e-05
-2.23201e-05
-6.05179e-05
1.98325e-06
-2.43739e-06
-3.00115e-05
1.48918e-05
2.92045e-05
7.28867e-05
7.06639e-05
-3.58257e-05
-0.000140628
2.58457e-05
1.2035e-06
-2.88256e-05
-4.69699e-05
5.72428e-05
3.12586e-05
1.75566e-05
-0.000107817
-1.58469e-05
1.13327e-05
3.9952e-05
3.28141e-05
-4.30101e-05
3.20368e-05
3.74889e-05
-3.91935e-05
2.83313e-05
3.71942e-05
-1.37141e-05
3.56364e-05
-5.44165e-05
8.30449e-05
3.03243e-05
-1.94268e-05
-2.67293e-05
6.84276e-05
4.12178e-05
-2.91597e-05
3.35346e-05
3.92135e-05
3.6837e-05
-3.48372e-05
-2.8152e-05
1.41669e-05
3.52948e-05
-7.15668e-05
-2.16159e-05
4.60055e-05
3.64995e-05
2.31861e-05
-3.12356e-05
-7.13484e-05
2.2548e-05
-3.52726e-05
7.69857e-05
-4.16436e-05
-1.37864e-05
7.45143e-05
-5.40669e-05
4.00399e-06
-1.77843e-05
-5.58053e-05
2.01231e-05
5.95977e-06
5.05815e-05
6.31161e-05
-6.5826e-05
8.14188e-05
-4.32237e-05
-2.44332e-05
2.67201e-05
4.39433e-06
9.56806e-06
7.65524e-06
4.39119e-06
-4.22162e-05
2.17033e-05
1.01279e-05
-1.56354e-05
-7.88143e-05
-2.79718e-05
-7.33172e-06
2.62831e-05
6.22845e-06
2.38396e-05
-8.04104e-06
5.26161e-05
3.00965e-05
-3.07952e-05
-8.68589e-05
1.14741e-05
3.87328e-05
1.11607e-05
-2.8562e-05
-9.12487e-06
-2.48128e-06
2.21184e-05
-3.22983e-06
2.53445e-05
2.25464e-05
3.20964e-05
-2.08741e-05
-3.06265e-06
6.05546e-06
-3.414e-06
3.49664e-05
-2.44873e-05
5.34733e-05
1.96631e-05
1.27887e-05
-1.15687e-05
2.92531e-05
2.87069e-06
3.39589e-05
-1.87167e-05
-2.88605e-06
-6.90415e-05
2.46684e-05
-5.03904e-06
-1.26839e-05
2.05985e-05
-2.63404e-05
-2.66137e-06
-3.02471e-05
-7.38933e-05
-1.16543e-05
0.000124286
-9.6718e-05
2.30566e-05
4.0888e-05
1.12089e-05
1.89693e-05
2.2975e-05
-6.50402e-05
-1.85563e-05
-3.58938e-05
9.88785e-06
-2.25083e-05
-0.000114619
5.06437e-05
-0.000120174
-5.21555e-05
0.000129995
-2.8554e-05
-3.29318e-05
1.39812e-05
-3.08803e-06
-4.58444e-06
-6.87174e-05
5.01052e-07
2.5406e-05
-3.06813e-05
-4.83695e-05
-2.09837e-05
3.77459e-05
3.99079e-05
1.09903e-05
-3.37758e-05
2.43065e-05
4.91922e-05
4.58609e-05
-7.13925e-05
-6.57423e-05
-4.4868e-05
5.14658e-05
2.45112e-06
-1.54716e-06
-6.96706e-05
3.42727e-07
-1.04236e-05
6.89423e-06
-2.29041e-05
-2.35578e-06
-3.06219e-05
3.27419e-05
-3.22692e-06
-1.0337e-05
-2.52561e-05
2.84619e-05
9.52233e-05
-3.02619e-05
3.21713e-05
4.43811e-05
-4.54091e-05
-0.000101101
-3.30777e-05
0.00011101
6.25441e-05
-5.28281e-05
-0.000107186
-1.18127e-05
6.85671e-05
3.4612e-05
-5.40467e-05
-5.21381e-05
4.7517e-05
-4.06369e-05
-0.000119436
6.12034e-05
-1.81564e-05
-3.11724e-05
0.000105494
-4.54728e-05
-9.2944e-05
-5.38457e-05
9.50554e-06
-5.54994e-05
1.67228e-05
4.28176e-06
-7.23698e-05
6.52415e-06
4.5925e-05
6.77758e-06
-2.06684e-06
5.32218e-05
2.83386e-05
-3.75981e-05
-4.85515e-05
0.000104193
-1.62808e-05
-5.72752e-06
-2.97001e-05
-2.67266e-06
-4.58119e-05
8.22777e-06
-1.31112e-05
-4.38887e-05
-3.3671e-05
-5.49548e-05
4.80608e-05
-3.43903e-05
5.50933e-05
-3.2677e-05
-2.49937e-05
-9.60962e-06
3.26965e-05
-4.34383e-05
8.2174e-05
3.99025e-06
1.01075e-05
-2.64165e-05
-1.68546e-06
5.18315e-05
-5.05227e-05
7.65342e-05
-2.69972e-05
-2.84479e-05
5.25336e-06
1.91294e-05
5.75276e-05
-1.55075e-05
1.41475e-05
1.54795e-05
9.67544e-05
-2.60591e-05
2.79758e-06
-6.86488e-05
-4.36453e-06
5.35545e-06
-6.22822e-07
-1.12274e-05
2.76116e-05
-7.06451e-05
2.38862e-05
3.64636e-05
-5.86128e-06
-1.47324e-05
5.85363e-05
-1.46357e-06
5.05475e-07
-8.36339e-06
-6.6882e-05
-7.4585e-06
-5.66775e-05
5.49147e-05
-1.55682e-05
-6.51169e-05
1.93974e-05
-2.5009e-05
1.49551e-05
4.44495e-05
-8.87876e-06
-5.64915e-05
-7.07044e-05
-8.34162e-06
-2.96299e-05
-2.15298e-06
-1.83214e-05
-1.89268e-06
-0.000102778
8.74803e-06
3.2482e-05
3.07963e-05
-0.000103662
-3.61558e-05
2.02423e-05
8.39112e-05
4.75312e-06
-1.31457e-05
3.19695e-05
7.1479e-07
-3.7137e-05
-7.51379e-05
-6.92121e-05
-2.21236e-06
-7.09705e-05
1.36672e-06
-4.3752e-05
5.21006e-05
-3.20335e-05
-2.11227e-05
9.38191e-06
-1.06089e-06
4.85091e-06
-2.59294e-05
5.72978e-05
-2.03839e-05
4.02207e-05
1.71231e-05
-4.36114e-05
4.79119e-06
-4.09897e-05
-3.49013e-07
2.30945e-05
-3.31623e-05
1.34481e-05
1.23591e-05
-2.61038e-05
-4.6381e-05
1.17684e-05
-4.40206e-05
0.000100773
4.16172e-05
5.95754e-05
5.72717e-06
3.6353e-06
3.72168e-05
-2.83865e-05
-2.65327e-05
-3.87037e-05
-3.32441e-05
-2.94461e-06
-4.83496e-06
-7.42384e-05
-9.21182e-05
-4.12923e-05
9.36037e-05
1.79687e-05
2.46144e-05
5.07894e-05
-3.90918e-05
-4.86933e-05
-6.07769e-05
2.91874e-05
-7.01525e-05
2.39776e-05
5.71006e-05
1.43808e-05
-8.5445e-05
6.48921e-05
5.6416e-06
1.15007e-05
-0.000120717
5.33743e-05
7.36075e-05
5.39143e-06
1.38732e-05
1.18414e-05
-9.6513e-06
3.66955e-05
-3.03431e-05
4.71817e-05
6.17247e-05
-4.68176e-06
-4.04329e-05
-2.98399e-05
4.8338e-06
-1.19233e-06
4.36949e-05
-1.84914e-06
-1.13774e-05
-1.70614e-05
7.82479e-05
-4.58397e-06
1.79143e-05
-3.62855e-05
-7.78629e-05
7.38344e-05
-9.1931e-05
-5.20772e-06
2.09283e-05
2.30595e-06
7.05895e-05
3.83815e-05
7.42113e-06
5.50145e-05
-1.01441e-05
4.60943e-05
-1.68374e-05
-5.88748e-05
-4.91891e-05
5.14216e-05
5.45888e-05
-1.9853e-05
5.81008e-05
3.02006e-05
1.38808e-05
2.24963e-05
6.25562e-05
6.90192e-06
-8.80082e-05
-1.34252e-05
-5.00749e-06
4.87003e-05
5.9925e-05
6.30915e-05
1.4269e-06
2.14428e-05
-2.66384e-05
-9.90473e-06
-6.22044e-05
-1.60283e-05
3.25947e-05
-3.85359e-05
-1.90416e-05
5.31547e-05
-2.28165e-05
1.54099e-05
-4.23555e-05
-5.64614e-07
-5.11482e-05
-1.0791e-05
-0.000114607
2.06347e-05
1.91701e-05
7.28536e-05
2.73277e-05
-4.94906e-05
5.05786e-05
5.27869e-05
6.42e-05
-7.98982e-06
4.43973e-05
-4.8651e-05
-2.5887e-05
-3.12886e-05
9.76644e-05
-4.46023e-05
-4.87098e-05
2.70449e-05
-5.04582e-05
1.36546e-05
-9.01835e-05
-0.000131356
6.04796e-05
5.67491e-05
-1.70097e-05
2.47734e-05
-9.10845e-06
5.16704e-05
-8.06588e-05
3.82913e-05
3.78342e-05
1.59068e-05
-7.97585e-06
-6.65523e-06
3.57421e-05
3.1377e-05
-9.32622e-05
-4.72956e-05
-9.38075e-05
-4.97692e-05
6.84743e-05
-3.54392e-05
9.1457e-06
-3.6623e-05
3.87211e-05
1.69347e-05
4.47608e-05
-5.40492e-05
2.94938e-05
6.61321e-05
1.22414e-05
-6.64287e-05
1.1333e-06
1.48165e-05
-1.36934e-05
6.08948e-05
-9.09087e-07
7.89308e-05
9.09693e-06
5.26163e-05
-9.66373e-05
3.41132e-05
6.60541e-06
-1.27821e-05
-4.43455e-05
-2.067e-05
3.15008e-06
-9.3074e-07
-6.30614e-05
-0.000100799
-4.15874e-05
-9.15084e-05
-4.81864e-05
5.62922e-05
-1.52455e-05
-5.22905e-05
-2.412e-05
-1.08291e-05
-4.57689e-05
-4.23098e-05
1.19051e-05
2.83611e-05
-1.41364e-05
-5.28243e-05
-6.13475e-05
1.77321e-05
1.07326e-05
-2.08274e-05
5.96306e-05
1.79058e-06
2.51202e-05
-2.36356e-05
5.88675e-05
3.18956e-05
4.76103e-05
-7.31895e-05
7.22468e-05
-0.000100922
-6.24079e-06
6.49309e-05
8.48912e-06
3.23071e-05
-3.30678e-06
-4.322e-05
2.37837e-06
1.99964e-05
-1.27287e-05
9.59367e-06
3.61395e-05
2.75432e-05
6.92138e-05
-2.72423e-06
-6.3224e-05
-6.14556e-06
-7.611e-06
-1.02108e-05
4.45037e-05
5.20132e-06
2.67313e-05
-6.6302e-06
-4.79852e-06
-2.94803e-05
1.43548e-05
5.68933e-06
6.79195e-05
9.01218e-06
3.43907e-05
1.84248e-05
1.29037e-05
-4.46524e-05
3.45936e-05
3.36552e-05
1.93843e-06
-1.88093e-05
4.46877e-05
-5.23899e-05
6.75367e-05
7.7465e-05
6.37211e-06
8.13849e-05
-3.18103e-05
2.20665e-05
-1.73566e-05
-2.87807e-05
-6.86577e-05
1.19234e-05
2.47911e-05
1.23703e-05
-3.48672e-05
2.16775e-05
-2.20751e-05
-3.52552e-06
1.23348e-05
1.70956e-06
2.97131e-05
-6.88559e-05
-1.33733e-05
9.18957e-05
-3.43516e-05
1.47284e-05
-1.23637e-05
4.94571e-05
2.42065e-05
-4.44688e-05
5.05933e-05
0.000106778
9.66932e-05
6.52504e-05
8.89995e-07
-7.20704e-06
-1.1457e-05
6.66903e-05
-5.44824e-06
4.01789e-05
-2.33981e-05
4.17557e-05
-3.41269e-05
-2.13976e-05
6.28096e-06
-2.6264e-05
3.58208e-05
-8.93145e-05
4.69466e-05
-3.5755e-05
3.30248e-05
2.34637e-05
-9.97121e-05
2.21338e-05
3.57017e-05
-1.87461e-05
2.13264e-05
-6.78236e-05
2.71619e-05
-5.16978e-05
5.68142e-05
4.88436e-05
-1.74809e-05
3.80409e-05
4.5417e-05
1.17874e-05
-8.38027e-06
2.07495e-05
-2.05641e-05
5.28252e-05
-7.57066e-05
-4.26271e-05
-7.67282e-06
2.04986e-05
-1.54355e-05
-3.12328e-05
1.17398e-05
6.21652e-05
4.88084e-05
4.33624e-06
-0.00012757
-5.02244e-05
-6.86675e-05
-6.60999e-05
3.09134e-05
7.61509e-05
-7.01357e-05
-7.0302e-06
9.28552e-06
4.82401e-05
3.84008e-06
8.47306e-06
-6.75762e-05
-1.85831e-05
1.21739e-05
-8.66817e-06
-3.19523e-05
-1.42833e-05
3.18419e-06
7.33044e-06
1.82409e-05
2.56517e-05
-6.78841e-05
-4.71447e-06
3.49288e-05
-5.05325e-05
1.0794e-05
-1.5015e-05
-1.63051e-05
-2.95395e-05
9.53886e-05
2.63901e-05
-1.76689e-05
-2.15017e-05
-1.27994e-05
8.03266e-06
-1.35811e-05
2.63907e-05
-7.18469e-06
-1.90849e-05
2.17273e-05
5.39325e-05
-9.03435e-05
5.79043e-05
-1.44772e-05
-1.46052e-05
-3.83226e-05
-4.5439e-05
2.61621e-05
5.74819e-05
2.07163e-05
1.80586e-05
2.6194e-05
-7.22171e-06
-2.65967e-05
2.38708e-05
-3.81791e-05
-3.29989e-05
2.86612e-05
4.19572e-06
5.3414e-05
-1.2902e-05
-4.54625e-06
9.10496e-05
1.63319e-05
1.6914e-05
-4.63275e-05
3.5574e-05
-3.91719e-05
2.29459e-05
1.72226e-05
3.08617e-06
6.80583e-05
6.72811e-05
-1.70232e-05
-7.54686e-06
4.5586e-05
-1.23875e-05
-6.61262e-06
0.000122597
3.26278e-05
1.82132e-05
2.49492e-05
-5.22543e-05
-2.22393e-05
-5.70164e-05
1.3042e-06
7.6904e-06
2.41782e-05
1.07714e-05
-5.20681e-05
1.76707e-05
6.44932e-05
-6.11884e-05
5.44074e-05
-4.49324e-05
-7.05204e-05
6.23101e-06
3.27921e-05
4.70872e-05
1.32679e-06
1.32954e-05
-7.78598e-05
-2.81831e-05
-6.89272e-06
0.000112601
3.68473e-05
-3.34257e-05
4.85627e-05
3.18347e-05
1.14888e-05
6.94901e-05
0.000133271
-7.38588e-05
-4.2037e-05
-1.68968e-05
2.04109e-05
8.13219e-06
-1.95544e-05
3.47552e-05
5.05908e-05
-6.30395e-05
-4.2269e-05
1.79624e-05
5.70348e-05
-6.66478e-07
2.8398e-05
-3.47802e-05
-8.23166e-05
-3.16929e-05
-5.51023e-05
-1.69483e-05
6.43992e-05
-5.57773e-05
5.25212e-05
-0.00011234
-7.10648e-05
-1.52232e-05
-1.6027e-05
-3.59302e-05
5.28323e-05
4.40272e-05
-4.75417e-06
-6.05783e-05
-2.03252e-05
1.72129e-05
2.40904e-05
-2.15005e-05
-3.80275e-05
1.8421e-05
-5.22968e-05
-1.48047e-05
-9.04258e-05
-1.86138e-05
-1.40988e-05
0.000121307
-2.54702e-05
5.25208e-05
3.79471e-05
3.11936e-05
-3.85308e-05
-5.10283e-06
-4.49657e-05
2.62955e-05
1.12429e-05
-1.86054e-05
1.74434e-05
-3.76217e-05
8.71113e-06
-3.17954e-05
7.14649e-05
-7.47014e-05
0.000101809
5.19647e-05
3.18051e-05
1.94152e-05
4.63657e-05
-3.00491e-06
1.62399e-05
7.99997e-05
3.67593e-06
-1.37989e-05
-5.21091e-05
-5.62188e-05
2.68222e-05
-3.78024e-05
-4.78228e-05
2.8863e-05
-2.68992e-05
-1.16546e-05
-5.02806e-05
3.10766e-05
-2.00599e-05
3.81089e-05
-8.71742e-05
-4.69049e-05
1.67185e-05
4.92434e-05
9.12766e-06
1.42597e-06
-6.6942e-05
-7.27305e-05
-1.43619e-05
-9.74454e-06
-1.56977e-05
2.67377e-05
-9.21227e-05
-5.88649e-05
-1.25874e-05
5.10602e-05
-8.97485e-05
7.8602e-05
1.309e-05
1.5168e-05
-0.000114672
-4.19712e-05
1.06477e-05
8.8416e-05
-6.75314e-06
-6.93102e-06
1.08081e-05
-9.15196e-05
-1.49584e-05
1.07783e-05
5.18083e-05
-3.28288e-05
4.25938e-05
9.43081e-06
7.85687e-07
4.03611e-05
-3.83437e-06
2.66724e-05
-2.21874e-05
6.11763e-07
2.16381e-06
1.83086e-05
-2.01638e-05
-7.52348e-05
-8.20155e-05
-4.08835e-05
3.0688e-05
3.11452e-05
-1.76034e-05
-1.14901e-05
3.87504e-05
9.27434e-06
1.17535e-05
-4.4487e-05
-5.27485e-05
-4.26524e-05
9.6072e-05
-3.91064e-05
-6.1756e-05
-4.51244e-05
4.71994e-06
-4.15782e-05
-1.74763e-06
2.57667e-05
4.8114e-05
-3.50768e-05
2.89148e-05
3.42637e-05
2.19486e-05
-2.03149e-05
-2.84291e-05
2.95847e-05
6.23249e-05
1.81489e-05
-1.77096e-05
-4.22898e-05
-3.51784e-06
6.32219e-05
3.54624e-06
7.63219e-06
-5.2941e-06
1.01693e-05
2.74983e-05
2.91362e-05
-2.60758e-05
-5.97395e-05
8.67874e-05
3.29316e-05
-1.45729e-05
-1.42367e-05
5.72898e-05
3.84299e-06
9.81889e-05
0.000121367
-2.85939e-05
2.49979e-05
7.872e-06
-1.86709e-05
-1.70155e-05
-7.32373e-05
0.00011208
-1.25972e-05
-6.01783e-05
7.86257e-06
3.08839e-05
9.78413e-06
7.84069e-06
1.71367e-05
4.83124e-08
-2.67224e-05
-2.56809e-05
-4.13376e-05
-4.55836e-05
-1.76236e-05
-7.76618e-06
-4.82695e-05
7.13977e-05
1.64246e-05
3.01739e-05
-3.19595e-05
1.3984e-05
-1.394e-05
-1.55894e-05
4.47617e-06
-1.65859e-05
8.27658e-05
5.56016e-05
5.67222e-06
3.54121e-05
2.86219e-06
-1.63054e-05
2.07496e-05
9.63267e-06
-1.45012e-05
-4.88879e-05
-4.0748e-05
-9.69239e-06
4.12577e-05
-2.15803e-05
-3.41525e-05
5.64971e-05
-1.37318e-05
-5.04197e-05
3.84742e-05
-2.33625e-05
-1.19582e-06
-5.94469e-05
5.95243e-06
6.40079e-05
-7.39727e-05
-2.23715e-05
-4.28862e-06
-7.43163e-05
-1.58099e-05
5.60061e-05
-2.41019e-05
5.20144e-05
4.58723e-05
-3.16433e-05
0.000122277
2.89964e-05
1.20702e-05
-2.74095e-05
-3.44679e-05
-3.202e-05
5.98457e-05
4.27903e-05
-2.5427e-05
-1.62856e-05
4.25263e-05
4.55977e-05
-7.0805e-05
-4.53839e-05
-1.75919e-05
6.00134e-05
3.70806e-05
4.36978e-05
-7.64488e-06
2.17557e-05
1.48428e-05
1.47811e-05
3.49528e-05
1.44985e-05
-7.17354e-05
5.90801e-05
3.93527e-05
-1.62125e-05
4.74529e-05
-1.84557e-05
-3.84231e-05
8.4609e-05
5.78985e-05
5.29938e-05
-2.82947e-05
-1.40264e-05
-3.38163e-06
6.56864e-05
1.70164e-05
1.81664e-05
-1.45179e-05
-3.22154e-05
8.30204e-06
5.70643e-05
3.72084e-05
6.89622e-05
3.92866e-05
3.07858e-05
-1.59348e-05
4.17507e-05
8.47247e-06
-3.21826e-05
-1.07551e-05
-1.45923e-05
5.39321e-05
1.21891e-05
2.11236e-05
-2.64752e-05
1.12988e-05
-2.39077e-05
-1.44509e-05
1.0998e-05
-7.73487e-06
4.69014e-06
1.68589e-05
6.6706e-05
1.5799e-05
-0.00010758
-8.24988e-05
6.52322e-06
-5.85071e-05
5.17321e-05
1.84868e-05
1.66774e-05
-7.07678e-05
5.68514e-06
-1.86228e-05
-4.33433e-05
5.83276e-05
-4.15357e-05
-7.76729e-05
-1.33202e-05
-3.74751e-05
-1.09943e-06
5.06309e-05
3.43448e-05
5.21399e-05
2.95315e-05
4.7144e-05
-2.02373e-05
0.000134812
5.51658e-05
-3.82704e-05
-1.12216e-05
0.000111732
1.12818e-06
-1.38342e-05
-2.07325e-05
-1.05337e-05
5.75138e-06
2.51085e-05
-6.47181e-05
1.22248e-06
0.00011825
2.02318e-05
-6.9679e-05
-8.34573e-05
9.06892e-05
4.29542e-05
-6.09935e-05
-2.33727e-06
4.52413e-06
-2.48617e-05
-7.4984e-05
-6.30133e-06
3.39795e-05
6.2887e-05
-2.65893e-06
-2.97541e-05
-6.67727e-05
-1.08313e-05
7.42311e-06
3.03185e-05
-1.26918e-05
1.26481e-05
-3.24743e-05
-1.54031e-05
4.65959e-05
-6.0664e-07
-7.33231e-05
-3.61172e-05
3.19342e-05
5.07124e-05
5.52051e-05
-3.86608e-05
-2.71021e-05
-1.73203e-06
4.00438e-05
-1.28826e-05
1.15238e-05
2.75386e-05
1.51007e-05
2.02362e-05
3.27823e-05
-0.000103584
-2.37203e-05
5.62994e-05
-3.56047e-05
-8.56415e-05
0.000101618
-2.90701e-05
2.15793e-05
-5.19509e-05
6.29341e-06
-5.95583e-05
3.80212e-06
-4.01158e-05
2.21791e-05
-9.73791e-06
6.35828e-05
-2.76126e-05
-2.54388e-05
9.06732e-05
-5.55888e-05
-3.51444e-05
1.47807e-05
-2.30939e-05
3.46848e-05
-4.10147e-05
-1.09316e-05
2.98403e-05
3.45641e-05
-4.78459e-05
-5.78745e-05
-3.72983e-05
3.58615e-05
-1.02367e-05
-1.76752e-05
3.83478e-05
4.55021e-06
-3.0726e-05
-6.31746e-05
6.19027e-06
-5.68884e-05
0.000120349
-0.000117729
-6.80867e-05
1.01868e-05
-1.02157e-05
2.82162e-05
-1.96021e-05
-6.25581e-06
3.5075e-05
9.93174e-06
-5.96481e-05
5.40573e-05
-2.97574e-05
-7.26082e-07
-9.39064e-06
-2.64808e-05
5.89002e-05
9.35851e-05
7.9501e-05
-1.6892e-05
-6.82928e-05
-7.77044e-05
4.75619e-05
-1.31782e-06
1.17442e-05
5.16304e-05
-6.31504e-05
2.21427e-05
3.45726e-05
-3.89622e-05
4.92731e-05
9.85351e-06
-2.73692e-05
-7.1801e-05
-2.20747e-06
9.41253e-06
5.68592e-05
-2.01403e-05
-8.62172e-06
7.09016e-06
9.57167e-07
-2.91981e-05
-3.67719e-05
9.87086e-07
-7.08341e-06
-7.77068e-05
4.07126e-05
2.28042e-05
-2.33527e-05
-2.82733e-05
6.35581e-06
-3.1061e-05
-2.37788e-05
5.87656e-05
3.77758e-05
-8.88542e-05
1.88738e-05
2.82153e-05
2.42069e-05
-1.97266e-05
3.13714e-05
2.67719e-05
-2.78915e-05
-1.14411e-05
4.39796e-05
-1.84719e-05
6.2898e-06
-9.41579e-06
3.67077e-05
-1.65391e-05
-2.21907e-05
-3.26344e-05
2.11541e-05
-9.05293e-05
-2.25267e-05
7.17805e-06
-1.67805e-05
-5.12949e-05
-4.15262e-05
3.02581e-05
1.8758e-05
1.34514e-05
6.79971e-05
0.000103677
-2.68694e-05
-5.62218e-05
-7.36862e-06
-8.72929e-06
-8.22102e-06
-0.000119192
3.07658e-05
9.97079e-05
7.93554e-05
2.35235e-05
2.89548e-06
3.23565e-05
6.61926e-06
-1.27412e-05
-1.1237e-05
3.50212e-06
6.08938e-05
-6.73474e-06
5.99329e-05
-9.1074e-06
-4.93438e-05
-1.25009e-05
-1.79209e-05
3.4178e-05
-3.37978e-05
7.39493e-06
5.94531e-05
0.000102923
1.5897e-05
2.07336e-06
6.60841e-05
-5.49527e-05
-6.422e-05
4.83543e-06
5.86055e-05
-3.53619e-05
-0.000113618
-3.21864e-05
8.25257e-06
3.03725e-05
4.09491e-06
1.25874e-05
-2.57909e-05
4.03018e-06
-1.99422e-05
-0.000115459
-8.30356e-06
2.34316e-05
1.67683e-05
-9.89949e-06
-1.7794e-05
3.41055e-05
5.38378e-05
-8.89646e-07
-3.26864e-05
-1.44826e-05
1.0839e-05
2.86293e-05
1.41955e-05
-1.13221e-05
4.36332e-05
-9.70042e-06
4.36596e-05
-6.26012e-06
-6.49595e-05
8.33399e-05
7.3734e-06
-2.33589e-05
-5.29966e-05
8.21915e-06
-7.67079e-05
-5.47345e-05
1.69983e-05
-2.35284e-05
6.93039e-05
-5.89245e-05
-1.58967e-05
-3.797e-06
-4.36555e-05
1.75065e-06
6.90867e-06
-1.56341e-05
-1.26814e-05
-6.31378e-06
-2.87473e-05
6.35837e-05
-1.2737e-05
2.98875e-05
-1.94586e-05
0.00010666
-6.87316e-05
2.64228e-06
7.97833e-05
-7.28986e-05
-2.11627e-05
-1.82865e-06
-5.65464e-06
-3.07187e-05
-1.67056e-07
6.13098e-05
-4.53608e-05
-3.93705e-06
2.74231e-05
5.10005e-05
6.30144e-06
2.15232e-05
-5.93151e-05
-4.52381e-05
-4.56908e-05
-4.39741e-05
-2.38912e-05
-5.03426e-05
-2.24269e-05
-6.28908e-05
1.11947e-05
0.000117077
1.08848e-05
1.6035e-06
7.11554e-06
-1.24831e-05
-9.79607e-05
1.17273e-05
-2.43353e-05
-6.5287e-05
-4.57342e-05
9.77496e-05
-2.84505e-05
2.46855e-05
2.89709e-05
-3.39509e-05
9.19255e-05
-5.06383e-05
-3.13998e-05
4.18164e-07
2.26256e-05
5.23946e-05
-4.6351e-05
3.02005e-06
-7.25875e-05
3.62422e-05
4.53801e-05
5.10276e-05
4.96123e-05
1.14613e-05
6.31437e-06
1.38576e-05
1.41421e-06
1.35631e-05
-5.94303e-05
-5.26089e-05
-3.14451e-05
3.6899e-05
-1.13028e-06
4.39305e-06
1.65976e-05
1.01095e-05
-4.56732e-05
-5.67074e-05
-2.16056e-05
3.7537e-06
3.02105e-05
2.47173e-05
-3.70549e-05
-4.6816e-05
-8.03266e-05
-3.89206e-05
8.46445e-05
4.35195e-05
1.98981e-05
-8.17631e-06
-6.95745e-06
-5.38756e-05
3.5844e-05
-6.18504e-05
7.90432e-05
-1.59481e-05
-3.99175e-05
-6.26174e-05
3.51216e-05
5.15333e-05
1.97045e-06
-3.47069e-06
-9.94955e-06
5.45724e-05
-4.35944e-05
-3.20034e-05
3.58509e-05
-2.33697e-05
-7.19354e-06
3.16276e-05
-2.36786e-05
4.79079e-05
6.11597e-05
-1.5019e-05
5.83358e-05
-1.60111e-05
-5.55502e-05
-4.11178e-05
3.92946e-05
8.73663e-05
-9.01835e-06
2.39066e-05
5.31226e-05
-2.11829e-06
3.75926e-05
-6.11143e-05
-5.37822e-05
4.75645e-05
-2.97434e-05
-7.41602e-05
-1.30143e-05
3.82937e-06
-4.95901e-05
-1.00629e-05
1.48062e-05
3.36755e-06
-4.77559e-05
-3.26615e-05
4.78001e-06
4.40958e-05
4.04309e-05
-4.65777e-05
-4.65791e-05
9.95432e-06
6.58095e-05
1.77755e-05
-1.76018e-05
-0.000102062
4.74707e-05
-2.01665e-05
-7.77573e-06
-8.79902e-06
4.50332e-05
-5.59189e-06
-5.70056e-05
-1.93107e-05
-3.39666e-05
4.75907e-05
2.16509e-05
-2.22092e-05
-2.4779e-05
-2.54151e-05
-5.89038e-06
-1.15656e-05
-4.13181e-05
-4.02358e-05
1.20583e-06
-4.4826e-05
2.0425e-05
3.38082e-06
-2.82911e-05
3.0164e-05
9.34897e-06
-6.713e-05
-4.0574e-05
7.09337e-05
-3.39554e-05
-2.67517e-05
2.17739e-05
1.56355e-05
1.4439e-05
-8.90146e-06
-1.1994e-05
1.44324e-05
8.70281e-05
-9.70205e-07
1.24231e-05
-5.59277e-05
-1.92777e-05
3.90809e-05
3.06941e-06
-4.05496e-05
7.567e-06
6.72844e-05
3.94988e-05
-7.47545e-05
-3.48642e-05
2.4689e-05
-5.16148e-05
3.76662e-06
-4.08549e-05
-1.83191e-05
8.32828e-05
-3.53502e-05
-3.56362e-05
-9.10182e-06
-2.37036e-05
-7.61577e-05
-4.31733e-05
-3.44523e-05
3.03325e-05
-5.93208e-05
-4.43433e-05
-1.38482e-05
2.80143e-05
4.43456e-05
7.11193e-06
-4.1828e-07
-3.37955e-05
5.63173e-05
4.62113e-05
-7.51623e-05
0.000106831
-4.85464e-05
-1.38169e-05
-8.41101e-07
-1.47609e-05