# vtk DataFile Version 1.0
Net Charge Density
ASCII
DATASET STRUCTURED_POINTS
DIMENSIONS 256 128 1
ORIGIN 0 0 0
SPACING 0.15625 0.15625 1
POINT_DATA 32768
SCALARS rhonet float
LOOKUP_TABLE default
-3.89619e-06
-9.51274e-05
0.000144792
9.6322e-05
3.5684e-05
0.000120451
-0.000118445
9.18579e-05
0.000154217
2.28995e-05
-3.75607e-05
0.000108726
0.00010382
7.94453e-05
0.000109346
4.99606e-05
8.77435e-05
0.000140236
4.0588e-05
-6.79102e-05
-6.40657e-06
0.000141859
0.000144767
4.77824e-05
3.7268e-05
2.07428e-05
7.74215e-05
9.05892e-05
-1.35215e-05
-7.27426e-05
5.23025e-05
3.97235e-05
4.36689e-05
6.90086e-05
1.24418e-05
0.000171713
1.68071e-05
7.28723e-05
7.73574e-05
-5.53112e-06
2.29316e-05
6.83218e-06
0.000136404
9.39813e-05
2.09388e-05
1.86829e-05
-3.16135e-05
6.95549e-05
0.000116213
7.88724e-05
-1.2008e-05
2.49782e-05
8.34425e-05
0.000148996
3.55958e-05
1.75039e-05
0.000151011
-5.17471e-05
5.67781e-06
7.16954e-05
5.02797e-05
6.06019e-05
7.16816e-06
8.01801e-05
8.22491e-05
-8.03834e-05
4.41823e-05
0.000136175
4.09954e-05
4.82835e-05
7.92337e-05
3.67112e-05
-2.69164e-05
4.96678e-05
-1.15135e-07
5.11553e-05
4.2086e-05
-3.83076e-05
9.21619e-05
0.000106615
8.71842e-05
2.54082e-05
7.49616e-05
0.000101106
4.5468e-05
-4.48024e-06
-1.6691e-05
6.70485e-05
0.000119669
-2.34875e-05
9.00028e-05
-1.47953e-05
-3.9053e-05
-6.2146e-06
-8.99177e-05
5.22718e-05
0.000157961
2.40974e-05
9.16885e-05
-2.49447e-05
0.000157723
9.0919e-05
-3.16917e-06
9.47259e-05
3.90381e-05
0.000130971
-2.58209e-07
-6.85493e-05
2.663e-06
7.39999e-05
0.00013342
5.79278e-05
2.02986e-05
3.31155e-05
8.04209e-05
4.36598e-05
1.22659e-05
7.4969e-05
5.09602e-05
4.32278e-05
-3.98804e-05
-3.4563e-05
4.04442e-05
2.44899e-05
0.00011572
6.60875e-05
1.8255e-05
8.13097e-05
1.99639e-05
-1.88102e-05
0.000119797
9.26158e-05
-2.24379e-06
3.77485e-05
2.03243e-05
6.79633e-06
4.46092e-05
-3.19162e-05
4.68963e-05
-1.15026e-05
-4.98409e-05
2.32959e-05
2.09619e-05
0.000160761
9.88229e-05
2.06358e-06
0.000137836
1.15244e-05
-3.11242e-05
0.000132418
1.78269e-05
2.91318e-05
0.000108428
-8.34547e-06
3.45045e-05
4.32301e-05
5.74649e-06
3.42712e-05
-5.27652e-06
1.75425e-05
7.67777e-05
2.50087e-05
0.000112709
-2.20693e-05
3.25852e-05
2.55231e-05
5.84617e-05
-6.12718e-05
0.000105448
0.000137296
2.50289e-05
4.32237e-05
7.45819e-05
0.000111579
-2.02678e-05
-8.13324e-06
8.72933e-05
-8.23227e-05
1.15582e-05
3.31806e-05
8.87694e-05
-7.05998e-05
-3.18111e-05
5.65371e-06
1.04993e-05
7.98532e-05
4.142e-05
7.20925e-05
0.000102554
7.46853e-05
2.48841e-05
0.000198125
8.16124e-05
-6.56991e-05
6.24199e-05
0.000201229
4.75224e-05
8.32757e-05
7.86668e-05
-1.63091e-05
5.95992e-05
0.000149169
4.39016e-05
3.83353e-05
-1.00757e-05
6.97712e-05
-5.98882e-05
5.34236e-05
6.86802e-05
8.5791e-05
6.8102e-05
0.000137439
0.000106096
-2.40523e-05
0.000111081
-0.000131281
0.000102691
9.90942e-05
-5.2873e-05
-3.79207e-05
8.69744e-05
0.000114877
0.000176991
3.40519e-05
7.95296e-05
5.67449e-05
-3.69136e-05
-1.51403e-05
8.69033e-05
6.86067e-05
6.22822e-06
4.16542e-05
2.36378e-05
2.60696e-05
0.000121307
-3.55705e-05
-2.05776e-05
2.75011e-05
5.94512e-05
8.97981e-06
1.84993e-05
8.6694e-05
-5.82662e-05
-3.07336e-07
2.65902e-05
-1.44094e-05
-2.21964e-05
-3.95466e-05
0.000128655
-4.29619e-06
2.10487e-05
-3.85131e-05
0.000102294
2.14376e-05
2.4053e-05
4.18614e-05
-0.000104899
2.47047e-05
-6.30284e-05
-2.51199e-05
-2.38869e-05
5.12267e-05
-2.60451e-05
-7.57638e-05
4.9893e-05
-6.60463e-05
-4.29004e-05
2.33412e-05
-5.99085e-05
-8.0273e-05
3.00247e-06
-4.24259e-05
4.66232e-06
1.08918e-05
-2.15757e-05
-4.06103e-06
-5.82078e-05
-6.74938e-05
-0.000106137
-1.79203e-05
-2.0046e-05
-5.72713e-05
-2.52766e-05
7.73009e-06
-3.07414e-05
-8.53867e-05
-3.53892e-05
-8.36141e-06
2.74417e-05
-7.95682e-05
-6.67485e-05
2.31331e-05
-0.000103178
-3.37883e-05
1.98339e-05
-8.20335e-05
-5.15865e-05
-4.3841e-05
8.67283e-06
3.56e-05
-2.47124e-05
4.87443e-06
-0.000112384
-3.15171e-05
3.88795e-05
-3.39416e-05
-6.56132e-05
-4.11929e-05
-3.17378e-05
2.98232e-05
-2.8532e-05
-3.5457e-05
-2.34864e-05
-0.00011611
1.48104e-05
-3.37935e-05
4.56312e-05
-5.12688e-05
-5.72854e-05
-3.73457e-05
-3.01475e-05
-6.05668e-05
-1.00287e-05
-7.96344e-05
-0.000109192
1.21045e-05
-4.39814e-05
9.01648e-06
-1.84358e-05
1.72423e-05
-5.13535e-05
-1.04341e-05
4.76098e-05
-2.54936e-05
5.74085e-05
2.16183e-07
-3.24122e-05
-5.04444e-05
-8.22555e-05
2.8483e-05
2.44662e-05
-6.16948e-05
-0.000158637
-4.1698e-05
-6.57747e-08
-1.69133e-05
8.77376e-06
5.33127e-05
3.15637e-06
-1.0794e-05
2.47144e-05
-5.96512e-06
3.43234e-05
-2.73116e-05
-6.84732e-06
-1.89478e-06
-4.36436e-05
-0.000106617
-3.96515e-05
-2.96775e-05
-3.55601e-05
1.64224e-05
-5.91236e-05
-4.27188e-05
-1.06706e-06
-5.99981e-06
5.43521e-05
-3.54238e-05
-7.13797e-05
-7.13193e-05
4.01697e-05
1.15474e-05
-5.23521e-05
-1.11546e-05
9.64582e-06
3.18991e-05
-8.57747e-05
1.39612e-05
-6.13792e-05
-7.74185e-06
-3.48629e-05
-1.67092e-05
-4.55657e-05
-6.96026e-05
1.70249e-05
-4.88099e-05
-2.07971e-05
1.59814e-05
-1.05529e-05
-2.35448e-05
-1.24408e-05
-3.31044e-05
-4.60126e-05
-1.33581e-05
-4.22454e-05
-8.32311e-06
-5.94476e-05
-7.82582e-05
8.69751e-06
-2.01946e-06
-8.38252e-05
1.05491e-05
-3.22355e-05
-4.36765e-05
-0.000117681
-8.72544e-06
-3.99579e-05
-3.83072e-05
-7.16744e-05
9.3705e-06
3.00047e-05
-1.70408e-05
-2.39996e-05
-1.85613e-06
-5.11224e-05
-2.02561e-05
-8.13485e-05
-6.40948e-05
3.62428e-05
-8.02716e-05
-7.56315e-06
2.37458e-05
2.21167e-05
-5.27812e-05
-2.42551e-06
3.607e-05
-9.46559e-05
1.0237e-05
-2.21484e-05
3.97034e-05
-4.1351e-05
-2.55483e-05
-5.70097e-06
3.04061e-05
-6.907e-05
-4.77675e-05
3.67507e-05
-4.79678e-06
2.05869e-06
-4.86562e-05
-0.000107548
-6.60244e-05
-2.66006e-05
-2.24799e-05
-9.32976e-06
-1.88571e-05
-0.00010145
6.32275e-06
3.69593e-05
4.61028e-06
-1.08491e-05
-2.36549e-05
-8.50846e-05
-3.90908e-05
4.81101e-05
-6.9777e-06
-7.51887e-05
-6.46282e-05
-4.37903e-05
3.07561e-05
-5.53511e-05
1.8311e-06
-5.12165e-05
9.71672e-05
1.17975e-05
-4.14066e-05
-5.22411e-05
-4.83998e-05
-4.73997e-05
3.21257e-05
-3.50827e-05
-7.29868e-05
1.69815e-06
-2.53876e-05
-1.98886e-05
4.50574e-06
-1.73196e-05
7.05677e-05
5.70891e-05
-6.70664e-05
-3.48981e-05
-2.73382e-05
-7.02041e-05
-2.06064e-05
2.42674e-05
8.58862e-05
-8.70344e-05
6.9344e-06
-4.34536e-05
-3.62699e-05
6.90327e-05
3.75879e-05
-6.27583e-05
-4.99142e-06
2.55415e-05
-5.11212e-05
2.26251e-05
-1.34829e-05
-4.80206e-05
-1.98241e-05
3.05462e-06
3.73241e-05
3.42682e-05
-1.23486e-05
-2.31679e-05
-0.000132199
-1.66823e-07
-7.60646e-06
5.12584e-05
-7.35268e-06
-7.36325e-05
5.0168e-06
-3.30426e-05
-1.9907e-06
5.00255e-05
-7.79796e-06
-2.33897e-05
-8.48004e-06
1.05368e-06
-1.92295e-05
7.13237e-05
-5.1523e-05
7.82241e-06
3.11637e-05
6.53439e-05
-4.67901e-05
-2.9064e-05
-1.14907e-05
-2.49567e-05
-9.3428e-05
-2.04816e-05
3.51596e-05
4.88628e-05
3.64082e-05
-1.64524e-05
3.77694e-05
6.14581e-05
-4.7524e-05
4.48453e-05
4.40085e-05
9.82289e-06
-5.10863e-05
1.23068e-05
2.34434e-05
7.04301e-05
4.9668e-05
-3.57146e-05
2.25285e-05
5.2735e-06
-2.51163e-05
4.8009e-05
3.40393e-05
2.11626e-05
-2.89193e-05
-7.34261e-05
2.16746e-05
3.48729e-05
1.4205e-06
-4.63356e-05
1.81724e-06
-1.6571e-05
5.22446e-05
1.9271e-05
-4.25101e-05
-9.05944e-05
6.88387e-06
2.94282e-05
9.43278e-06
3.90756e-05
-4.01768e-05
2.79774e-05
-3.30701e-05
9.02759e-05
1.87054e-05
2.19359e-05
-2.38942e-05
3.89221e-05
7.95067e-05
-1.43005e-06
-1.07866e-05
-4.31224e-05
-5.63418e-05
3.6556e-05
5.69143e-06
-2.97659e-05
3.18503e-05
-3.75102e-05
-1.97687e-05
6.36962e-05
5.06416e-05
-4.80586e-05
-4.18776e-05
-9.31264e-06
-2.63555e-05
-1.33661e-05
5.09443e-05
7.41072e-05
-1.38805e-05
-5.52125e-05
-6.02386e-05
2.25472e-05
4.01649e-05
-3.56468e-05
4.60853e-05
6.0403e-05
1.00419e-05
-2.72853e-05
-6.84015e-05
1.0384e-05
-3.90668e-05
-6.67312e-05
1.89331e-05
-3.86648e-05
-7.26084e-05
1.55346e-05
3.4466e-05
-9.18203e-06
-2.52383e-05
3.49992e-05
6.71942e-05
-7.81473e-06
-2.34849e-05
1.90875e-05
-3.45568e-05
-3.24682e-06
3.17619e-05
-4.33619e-05
-4.44569e-05
-1.2916e-05
6.19076e-05
-1.54718e-05
-1.92423e-05
-9.33767e-07
1.07801e-05
-2.67865e-05
6.43284e-05
6.28177e-07
3.16116e-05
-3.45438e-05
-2.02104e-05
3.29814e-05
-8.92987e-06
-5.33779e-05
-6.58385e-05
-1.9774e-05
2.3836e-06
3.65474e-05
8.3677e-06
-1.87766e-06
1.4829e-05
-2.75739e-05
4.24775e-05
2.79524e-05
9.69104e-05
6.65832e-05
1.94262e-05
1.4567e-05
-1.36638e-05
5.9017e-05
5.77692e-05
-3.53304e-05
8.65562e-05
-1.8848e-05
-2.10224e-05
-5.39366e-05
1.12337e-05
-1.22987e-05
7.03157e-05
-1.07868e-05
6.14894e-06
5.77935e-05
3.47516e-05
-3.56395e-05
-5.85557e-06
4.38269e-05
2.9995e-05
1.48882e-05
3.09432e-06
-6.29966e-05
1.44141e-05
-9.34466e-05
4.10876e-05
-3.34168e-05
-7.29716e-05
6.78643e-06
-4.31379e-05
3.26065e-05
-5.40694e-05
-3.51893e-05
-7.38085e-06
-3.4678e-05
7.78167e-06
5.28588e-05
1.66991e-05
-1.61561e-06
7.61892e-05
-2.8963e-06
5.27892e-05
3.30998e-05
2.69053e-05
3.20117e-05
-4.14016e-05
-7.9121e-05
6.70389e-06
-3.7106e-05
3.38536e-07
3.12879e-05
2.55894e-05
4.62428e-05
-7.34464e-06
3.85569e-05
-1.82485e-05
8.60395e-05
-3.51758e-05
-2.42114e-05
-2.44785e-05
3.96881e-05
3.96359e-05
-5.5962e-06
-1.5982e-05
5.26488e-05
-3.1283e-05
-9.51323e-06
1.32087e-05
3.03084e-05
4.0144e-05
-6.21302e-05
6.55791e-06
-4.02802e-05
7.68157e-05
-2.30572e-05
2.42668e-06
-2.36242e-05
-7.65733e-06
1.05542e-06
-7.58457e-05
1.89047e-05
4.24925e-05
2.73366e-06
-4.68809e-05
-0.000111355
2.32973e-05
1.92823e-05
1.66963e-06
4.11419e-05
-1.26263e-05
3.11446e-06
-2.15392e-05
-7.41894e-05
3.57796e-05
1.81668e-05
-4.43209e-05
1.38065e-05
2.49421e-05
-1.40066e-05
-5.45268e-05
-1.59672e-05
4.84833e-05
-4.49992e-06
-0.000139603
5.7974e-05
3.08066e-05
0.000100899
-3.72755e-05
3.82719e-05
1.96724e-05
-2.19457e-05
-3.16997e-05
-3.15023e-05
5.79789e-05
8.84751e-05
-9.06724e-06
-5.99887e-05
9.21846e-06
8.46398e-06
-1.82772e-08
-2.0785e-05
-3.90371e-05
0.000130275
-3.43219e-05
-4.70516e-05
5.37114e-05
-2.79676e-06
2.82296e-06
-3.79189e-05
-6.05411e-05
4.75424e-05
4.84362e-05
-1.75374e-05
3.74631e-05
-5.19099e-05
4.18175e-05
3.39494e-05
-6.99726e-05
2.7366e-05
3.88055e-05
1.67809e-05
-5.26782e-05
6.28687e-05
-2.19627e-05
-4.31014e-05
-7.40355e-06
-2.66791e-05
4.25467e-05
3.64997e-06
2.75731e-05
-4.73879e-05
-6.43695e-06
3.03092e-05
-2.26306e-05
-8.19345e-05
-4.95819e-05
1.36236e-05
3.36368e-05
4.53525e-05
-3.78169e-05
6.72049e-05
-2.0206e-05
-6.2304e-05
4.74696e-05
4.62765e-05
1.24057e-05
3.82877e-05
2.15031e-05
5.87145e-05
-6.50003e-05
-4.25662e-05
-1.34122e-05
4.39056e-05
4.78699e-05
-2.23203e-05
-6.05173e-05
1.98325e-06
-2.43704e-06
-3.00116e-05
1.48928e-05
2.92044e-05
7.28875e-05
7.06636e-05
-3.58257e-05
-0.000140627
2.58457e-05
1.20327e-06
-2.88259e-05
-4.69702e-05
5.72429e-05
3.12586e-05
1.75565e-05
-0.000107817
-1.58476e-05
1.13322e-05
3.99519e-05
3.28135e-05
-4.30108e-05
3.20361e-05
3.74884e-05
-3.91932e-05
2.83306e-05
3.71945e-05
-1.37141e-05
3.56368e-05
-5.44159e-05
8.30449e-05
3.03239e-05
-1.94273e-05
-2.67286e-05
6.84278e-05
4.1218e-05
-2.91591e-05
3.35348e-05
3.92143e-05
3.68371e-05
-3.48372e-05
-2.81518e-05
1.41673e-05
3.52947e-05
-7.15666e-05
-2.16158e-05
4.60051e-05
3.64985e-05
2.31861e-05
-3.12359e-05
-7.13486e-05
2.25478e-05
-3.52727e-05
7.69858e-05
-4.16432e-05
-1.37857e-05
7.4514e-05
-5.40667e-05
4.0041e-06
-1.77844e-05
-5.58048e-05
2.01231e-05
5.95988e-06
5.0582e-05
6.3116e-05
-6.58248e-05
8.14188e-05
-4.32243e-05
-2.44334e-05
2.67202e-05
4.39456e-06
9.56818e-06
7.65512e-06
4.39119e-06
-4.22159e-05
2.17028e-05
1.01274e-05
-1.5635e-05
-7.88141e-05
-2.79715e-05
-7.33137e-06
2.62831e-05
6.22845e-06
2.38395e-05
-8.04116e-06
5.26155e-05
3.00963e-05
-3.07955e-05
-8.68592e-05
1.14744e-05
3.87327e-05
1.1161e-05
-2.85616e-05
-9.12498e-06
-2.48151e-06
2.21177e-05
-3.22994e-06
2.53444e-05
2.25467e-05
3.20964e-05
-2.0874e-05
-3.06312e-06
6.05581e-06
-3.41376e-06
3.49665e-05
-2.44871e-05
5.34741e-05
1.9663e-05
1.27887e-05
-1.15689e-05
2.92526e-05
2.87057e-06
3.3959e-05
-1.87169e-05
-2.88663e-06
-6.90413e-05
2.46686e-05
-5.03869e-06
-1.26836e-05
2.05981e-05
-2.63398e-05
-2.66172e-06
-3.02474e-05
-7.38936e-05
-1.16543e-05
0.000124286
-9.67182e-05
2.30563e-05
4.08879e-05
1.12079e-05
1.89694e-05
2.29744e-05
-6.50398e-05
-1.85566e-05
-3.58943e-05
9.88785e-06
-2.25088e-05
-0.000114619
5.06444e-05
-0.000120174
-5.21551e-05
0.000129995
-2.85545e-05
-3.29314e-05
1.39811e-05
-3.08792e-06
-4.58409e-06
-6.87176e-05
5.01052e-07
2.54062e-05
-3.06806e-05
-4.83693e-05
-2.09834e-05
3.77458e-05
3.99073e-05
1.09907e-05
-3.3776e-05
2.43069e-05
4.91926e-05
4.58611e-05
-7.13922e-05
-6.57422e-05
-4.48677e-05
5.1466e-05
2.45112e-06
-1.54681e-06
-6.96711e-05
3.42494e-07
-1.04238e-05
6.89423e-06
-2.29038e-05
-2.35508e-06
-3.06218e-05
3.27413e-05
-3.22645e-06
-1.03372e-05
-2.52565e-05
2.84626e-05
9.52233e-05
-3.02623e-05
3.21711e-05
4.43814e-05
-4.54085e-05
-0.000101101
-3.30774e-05
0.00011101
6.25448e-05
-5.28279e-05
-0.000107186
-1.18128e-05
6.85669e-05
3.46117e-05
-5.4047e-05
-5.21372e-05
4.75184e-05
-4.06377e-05
-0.000119436
6.12033e-05
-1.81564e-05
-3.11732e-05
0.000105493
-4.54733e-05
-9.29437e-05
-5.38455e-05
9.50485e-06
-5.54984e-05
1.67228e-05
4.28187e-06
-7.23695e-05
6.52461e-06
4.59254e-05
6.77723e-06
-2.0666e-06
5.32221e-05
2.83384e-05
-3.75984e-05
-4.85509e-05
0.000104194
-1.62809e-05
-5.7281e-06
-2.96994e-05
-2.67313e-06
-4.58119e-05
8.22777e-06
-1.31109e-05
-4.38885e-05
-3.36707e-05
-5.49548e-05
4.80608e-05
-3.43901e-05
5.50934e-05
-3.26771e-05
-2.49941e-05
-9.60915e-06
3.26968e-05
-4.34385e-05
8.21743e-05
3.99048e-06
1.01072e-05
-2.64163e-05
-1.68569e-06
5.18314e-05
-5.05232e-05
7.65345e-05
-2.69968e-05
-2.84482e-05
5.25347e-06
1.91286e-05
5.75266e-05
-1.55077e-05
1.41477e-05
1.54794e-05
9.67546e-05
-2.60589e-05
2.79746e-06
-6.86486e-05
-4.36464e-06
5.35569e-06
-6.23171e-07
-1.1227e-05
2.76122e-05
-7.06459e-05
2.38863e-05
3.64642e-05
-5.86105e-06
-1.4732e-05
5.85363e-05
-1.46381e-06
5.05941e-07
-8.36386e-06
-6.68823e-05
-7.45873e-06
-5.66774e-05
5.4914e-05
-1.55683e-05
-6.51167e-05
1.93968e-05
-2.50094e-05
1.49544e-05
4.44492e-05
-8.8783e-06
-5.64918e-05
-7.07045e-05
-8.34151e-06
-2.96296e-05
-2.15229e-06
-1.83219e-05
-1.89303e-06
-0.000102778
8.74838e-06
3.24821e-05
3.07965e-05
-0.000103662
-3.6156e-05
2.02425e-05
8.39111e-05
4.75196e-06
-1.3145e-05
3.19697e-05
7.14557e-07
-3.71368e-05
-7.51382e-05
-6.92118e-05
-2.21236e-06
-7.09699e-05
1.3673e-06
-4.37516e-05
5.21014e-05
-3.20333e-05
-2.11227e-05
9.38238e-06
-1.06043e-06
4.85091e-06
-2.59295e-05
5.72975e-05
-2.03844e-05
4.0221e-05
1.71226e-05
-4.36119e-05
4.79107e-06
-4.09896e-05
-3.49246e-07
2.30944e-05
-3.31627e-05
1.34482e-05
1.23585e-05
-2.6104e-05
-4.63811e-05
1.17684e-05
-4.40202e-05
0.000100773
4.16171e-05
5.95754e-05
5.72728e-06
3.63553e-06
3.72172e-05
-2.83872e-05
-2.65329e-05
-3.87037e-05
-3.32441e-05
-2.94531e-06
-4.83345e-06
-7.4239e-05
-9.21187e-05
-4.12924e-05
9.36041e-05
1.79682e-05
2.46144e-05
5.079e-05
-3.90921e-05
-4.86936e-05
-6.07773e-05
2.91874e-05
-7.01523e-05
2.39768e-05
5.71008e-05
1.43813e-05
-8.54449e-05
6.48922e-05
5.64125e-06
1.15014e-05
-0.000120717
5.33742e-05
7.36075e-05
5.39166e-06
1.38737e-05
1.18408e-05
-9.6513e-06
3.66953e-05
-3.03435e-05
4.71816e-05
6.17245e-05
-4.68083e-06
-4.04324e-05
-2.98405e-05
4.83403e-06
-1.19221e-06
4.36945e-05
-1.84937e-06
-1.13779e-05
-1.7061e-05
7.82481e-05
-4.5842e-06
1.79136e-05
-3.62848e-05
-7.78633e-05
7.38348e-05
-9.19306e-05
-5.20796e-06
2.09289e-05
2.3063e-06
7.05887e-05
3.83818e-05
7.42124e-06
5.5014e-05
-1.0145e-05
4.60942e-05
-1.68381e-05
-5.88743e-05
-4.91895e-05
5.14215e-05
5.45885e-05
-1.9853e-05
5.81006e-05
3.02014e-05
1.38804e-05
2.24964e-05
6.25565e-05
6.90168e-06
-8.80079e-05
-1.3425e-05
-5.00772e-06
4.87003e-05
5.99247e-05
6.30913e-05
1.42655e-06
2.14424e-05
-2.66379e-05
-9.90403e-06
-6.22037e-05
-1.60285e-05
3.25952e-05
-3.85358e-05
-1.90416e-05
5.31536e-05
-2.28165e-05
1.54097e-05
-4.23556e-05
-5.64731e-07
-5.11481e-05
-1.07911e-05
-0.000114607
2.06345e-05
1.91706e-05
7.28536e-05
2.73271e-05
-4.949e-05
5.05785e-05
5.27868e-05
6.41993e-05
-7.99028e-06
4.4397e-05
-4.86515e-05
-2.58863e-05
-3.12889e-05
9.76647e-05
-4.46023e-05
-4.87093e-05
2.70447e-05
-5.04581e-05
1.36551e-05
-9.01832e-05
-0.000131356
6.04796e-05
5.67492e-05
-1.7009e-05
2.47727e-05
-9.1081e-06
5.16697e-05
-8.06588e-05
3.82916e-05
3.78343e-05
1.5907e-05
-7.97585e-06
-6.65511e-06
3.57418e-05
3.13767e-05
-9.32614e-05
-4.72959e-05
-9.38083e-05
-4.97691e-05
6.84747e-05
-3.54394e-05
9.14477e-06
-3.66227e-05
3.8721e-05
1.69348e-05
4.47609e-05
-5.40483e-05
2.94942e-05
6.61318e-05
1.22415e-05
-6.64289e-05
1.13295e-06
1.48166e-05
-1.36938e-05
6.08948e-05
-9.08971e-07
7.89308e-05
9.09728e-06
5.26162e-05
-9.66366e-05
3.41135e-05
6.60541e-06
-1.27819e-05
-4.43452e-05
-2.06707e-05
3.1509e-06
-9.30508e-07
-6.30612e-05
-0.000100799
-4.15872e-05
-9.15083e-05
-4.81866e-05
5.62917e-05
-1.52454e-05
-5.2291e-05
-2.41199e-05
-1.08292e-05
-4.57691e-05
-4.23088e-05
1.19059e-05
2.83611e-05
-1.41363e-05
-5.28245e-05
-6.13478e-05
1.77327e-05
1.07326e-05
-2.0828e-05
5.96303e-05
1.79058e-06
2.51207e-05
-2.36358e-05
5.88673e-05
3.18962e-05
4.76104e-05
-7.31898e-05
7.22463e-05
-0.000100921
-6.24114e-06
6.49309e-05
8.48901e-06
3.23064e-05
-3.30666e-06
-4.32199e-05
2.37802e-06
1.99968e-05
-1.27287e-05
9.59367e-06
3.61395e-05
2.75427e-05
6.92143e-05
-2.72365e-06
-6.32235e-05
-6.1458e-06
-7.61088e-06
-1.02108e-05
4.45032e-05
5.20074e-06
2.67308e-05
-6.62997e-06
-4.79887e-06
-2.94804e-05
1.43554e-05
5.6898e-06
6.79196e-05
9.01183e-06
3.43912e-05
1.84248e-05
1.29044e-05
-4.46523e-05
3.45934e-05
3.36543e-05
1.93878e-06
-1.88097e-05
4.46878e-05
-5.23891e-05
6.75361e-05
7.74653e-05
6.37188e-06
8.13849e-05
-3.18105e-05
2.2067e-05
-1.73564e-05
-2.87802e-05
-6.86578e-05
1.19234e-05
2.47911e-05
1.23702e-05
-3.48677e-05
2.16779e-05
-2.20751e-05
-3.52517e-06
1.23349e-05
1.70968e-06
2.97127e-05
-6.88566e-05
-1.33737e-05
9.18962e-05
-3.43518e-05
1.47284e-05
-1.23633e-05
4.94567e-05
2.42072e-05
-4.44684e-05
5.05934e-05
0.000106778
9.66934e-05
6.52506e-05
8.90228e-07
-7.20681e-06
-1.14567e-05
6.66906e-05
-5.448e-06
4.01791e-05
-2.33975e-05
4.17558e-05
-3.41277e-05
-2.13982e-05
6.28072e-06
-2.62641e-05
3.58209e-05
-8.93137e-05
4.69466e-05
-3.57555e-05
3.30256e-05
2.34643e-05
-9.97121e-05
2.21335e-05
3.5702e-05
-1.87465e-05
2.13259e-05
-6.78236e-05
2.71614e-05
-5.16977e-05
5.68138e-05
4.88438e-05
-1.74805e-05
3.80408e-05
4.54165e-05
1.17875e-05
-8.37992e-06
2.07492e-05
-2.05642e-05
5.28259e-05
-7.57058e-05
-4.26272e-05
-7.67293e-06
2.04984e-05
-1.54356e-05
-3.12331e-05
1.17398e-05
6.21657e-05
4.88078e-05
4.33647e-06
-0.000127571
-5.02245e-05
-6.86673e-05
-6.60998e-05
3.09136e-05
7.61511e-05
-7.01359e-05
-7.0302e-06
9.28494e-06
4.82402e-05
3.83996e-06
8.47247e-06
-6.75762e-05
-1.85826e-05
1.21738e-05
-8.66794e-06
-3.19519e-05
-1.4283e-05
3.18373e-06
7.33032e-06
1.82407e-05
2.56517e-05
-6.78836e-05
-4.71459e-06
3.49286e-05
-5.0533e-05
1.07933e-05
-1.50147e-05
-1.63051e-05
-2.95392e-05
9.53889e-05
2.63909e-05
-1.76688e-05
-2.15018e-05
-1.27993e-05
8.03277e-06
-1.35807e-05
2.63914e-05
-7.18539e-06
-1.90848e-05
2.1728e-05
5.39329e-05
-9.03434e-05
5.79043e-05
-1.44773e-05
-1.46059e-05
-3.83226e-05
-4.54388e-05
2.61618e-05
5.74817e-05
2.07166e-05
1.80589e-05
2.61943e-05
-7.22182e-06
-2.65967e-05
2.38705e-05
-3.81798e-05
-3.29993e-05
2.86608e-05
4.19607e-06
5.34146e-05
-1.29023e-05
-4.54602e-06
9.10492e-05
1.63321e-05
1.69135e-05
-4.63276e-05
3.55743e-05
-3.91719e-05
2.29459e-05
1.72227e-05
3.08617e-06
6.80586e-05
6.72801e-05
-1.70234e-05
-7.54697e-06
4.55864e-05
-1.23875e-05
-6.61239e-06
0.000122596
3.26277e-05
1.82126e-05
2.49492e-05
-5.22539e-05
-2.22391e-05
-5.70168e-05
1.30432e-06
7.69028e-06
2.41784e-05
1.07717e-05
-5.20681e-05
1.76706e-05
6.44934e-05
-6.11886e-05
5.44073e-05
-4.49325e-05
-7.052e-05
6.23078e-06
3.27921e-05
4.70873e-05
1.32725e-06
1.3295e-05
-7.78605e-05
-2.8183e-05
-6.89283e-06
0.000112601
3.68475e-05
-3.34255e-05
4.85625e-05
3.18348e-05
1.14895e-05
6.94901e-05
0.00013327
-7.3859e-05
-4.2037e-05
-1.68966e-05
2.04113e-05
8.13301e-06
-1.95547e-05
3.47554e-05
5.0591e-05
-6.30398e-05
-4.22691e-05
1.79628e-05
5.70342e-05
-6.66711e-07
2.83978e-05
-3.47797e-05
-8.23161e-05
-3.16934e-05
-5.51022e-05
-1.69483e-05
6.4399e-05
-5.5777e-05
5.25212e-05
-0.000112341
-7.10643e-05
-1.52239e-05
-1.60272e-05
-3.593e-05
5.28324e-05
4.40275e-05
-4.75498e-06
-6.05776e-05
-2.03252e-05
1.72122e-05
2.40916e-05
-2.15005e-05
-3.80278e-05
1.84207e-05
-5.22973e-05
-1.48041e-05
-9.04265e-05
-1.86131e-05
-1.40984e-05
0.000121307
-2.54704e-05
5.25205e-05
3.79469e-05
3.1194e-05
-3.85309e-05
-5.10272e-06
-4.49668e-05
2.62955e-05
1.12432e-05
-1.8605e-05
1.74427e-05
-3.76216e-05
8.71113e-06
-3.17959e-05
7.1466e-05
-7.47017e-05
0.000101809
5.19648e-05
3.18051e-05
1.94153e-05
4.63664e-05
-3.00491e-06
1.62403e-05
7.99987e-05
3.67593e-06
-1.37992e-05
-5.21087e-05
-5.62182e-05
2.68223e-05
-3.78024e-05
-4.78226e-05
2.88635e-05
-2.6899e-05
-1.16548e-05
-5.02807e-05
3.10765e-05
-2.00591e-05
3.8109e-05
-8.7174e-05
-4.69051e-05
1.67189e-05
4.92434e-05
9.12801e-06
1.42609e-06
-6.69416e-05
-7.27306e-05
-1.43618e-05
-9.74513e-06
-1.56977e-05
2.67371e-05
-9.21221e-05
-5.88645e-05
-1.25879e-05
5.10603e-05
-8.9749e-05
7.86015e-05
1.309e-05
1.51681e-05
-0.000114672
-4.19713e-05
1.06483e-05
8.84152e-05
-6.75325e-06
-6.93055e-06
1.0808e-05
-9.15199e-05
-1.49584e-05
1.07788e-05
5.18089e-05
-3.28287e-05
4.25935e-05
9.43081e-06
7.85803e-07
4.0361e-05
-3.83507e-06
2.66725e-05
-2.21871e-05
6.10948e-07
2.16486e-06
1.83088e-05
-2.01635e-05
-7.52349e-05
-8.20158e-05
-4.08834e-05
3.06886e-05
3.11448e-05
-1.76032e-05
-1.14897e-05
3.87499e-05
9.27411e-06
1.17531e-05
-4.44876e-05
-5.27484e-05
-4.26526e-05
9.60719e-05
-3.91064e-05
-6.17566e-05
-4.51248e-05
4.72018e-06
-4.15778e-05
-1.74763e-06
2.57662e-05
4.81142e-05
-3.50768e-05
2.89147e-05
3.42641e-05
2.19489e-05
-2.03148e-05
-2.84296e-05
2.95846e-05
6.23253e-05
1.81489e-05
-1.77093e-05
-4.229e-05
-3.51807e-06
6.32223e-05
3.54648e-06
7.6323e-06
-5.29445e-06
1.01699e-05
2.74987e-05
2.91364e-05
-2.60756e-05
-5.974e-05
8.67879e-05
3.29312e-05
-1.45722e-05
-1.42368e-05
5.72901e-05
3.8431e-06
9.8189e-05
0.000121367
-2.85938e-05
2.49982e-05
7.87165e-06
-1.86722e-05
-1.70153e-05
-7.32373e-05
0.000112081
-1.25974e-05
-6.01781e-05
7.86269e-06
3.08839e-05
9.78401e-06
7.84069e-06
1.71359e-05
4.92437e-08
-2.67228e-05
-2.56809e-05
-4.13366e-05
-4.55832e-05
-1.7624e-05
-7.76548e-06
-4.82691e-05
7.13976e-05
1.64243e-05
3.01737e-05
-3.196e-05
1.39842e-05
-1.39405e-05
-1.55888e-05
4.47629e-06
-1.65855e-05
8.27657e-05
5.56021e-05
5.67257e-06
3.54119e-05
2.8623e-06
-1.63055e-05
2.07487e-05
9.63244e-06
-1.45016e-05
-4.88881e-05
-4.07485e-05
-9.69251e-06
4.12576e-05
-2.15804e-05
-3.41524e-05
5.64967e-05
-1.37318e-05
-5.04197e-05
3.84743e-05
-2.33623e-05
-1.19628e-06
-5.9447e-05
5.95255e-06
6.40077e-05
-7.39719e-05
-2.23713e-05
-4.28897e-06
-7.43156e-05
-1.58094e-05
5.60064e-05
-2.41017e-05
5.20142e-05
4.5873e-05
-3.16426e-05
0.000122277
2.89966e-05
1.2071e-05
-2.74089e-05
-3.4468e-05
-3.202e-05
5.98456e-05
4.27904e-05
-2.54276e-05
-1.62858e-05
4.25265e-05
4.55983e-05
-7.08054e-05
-4.53846e-05
-1.75918e-05
6.00133e-05
3.70806e-05
4.36977e-05
-7.64523e-06
2.1755e-05
1.48432e-05
1.47809e-05
3.4952e-05
1.44986e-05
-7.17351e-05
5.90791e-05
3.9353e-05
-1.62121e-05
4.74527e-05
-1.84564e-05
-3.84232e-05
8.46089e-05
5.78988e-05
5.29931e-05
-2.82946e-05
-1.40265e-05
-3.38163e-06
6.56866e-05
1.70162e-05
1.8167e-05
-1.45183e-05
-3.22154e-05
8.30193e-06
5.7065e-05
3.72089e-05
6.89621e-05
3.92861e-05
3.07859e-05
-1.59347e-05
4.17505e-05
8.47341e-06
-3.21826e-05
-1.0755e-05
-1.45923e-05
5.39318e-05
1.21889e-05
2.11243e-05
-2.64747e-05
1.1299e-05
-2.39083e-05
-1.4451e-05
1.09988e-05
-7.73533e-06
4.69014e-06
1.68593e-05
6.67061e-05
1.57991e-05
-0.000107579
-8.24991e-05
6.5231e-06
-5.85073e-05
5.17321e-05
1.84861e-05
1.66779e-05
-7.07682e-05
5.68514e-06
-1.86227e-05
-4.33432e-05
5.83277e-05
-4.15358e-05
-7.76747e-05
-1.33207e-05
-3.74746e-05
-1.10024e-06
5.06307e-05
3.43451e-05
5.21395e-05
2.95313e-05
4.71444e-05
-2.02373e-05
0.000134813
5.51653e-05
-3.82711e-05
-1.12214e-05
0.000111733
1.12853e-06
-1.38341e-05
-2.07332e-05
-1.05341e-05
5.75127e-06
2.51083e-05
-6.47176e-05
1.22248e-06
0.000118249
2.02316e-05
-6.96788e-05
-8.34581e-05
9.06893e-05
4.29545e-05
-6.09942e-05
-2.33622e-06
4.52413e-06
-2.48621e-05
-7.49842e-05
-6.30086e-06
3.39792e-05
6.28863e-05
-2.65893e-06
-2.97544e-05
-6.67726e-05
-1.08315e-05
7.42346e-06
3.0318e-05
-1.26916e-05
1.26474e-05
-3.24748e-05
-1.5403e-05
4.65964e-05
-6.06291e-07
-7.3323e-05
-3.61169e-05
3.19346e-05
5.0712e-05
5.52047e-05
-3.86604e-05
-2.71015e-05
-1.73179e-06
4.00436e-05
-1.28829e-05
1.15242e-05
2.75387e-05
1.51006e-05
2.02364e-05
3.27816e-05
-0.000103584
-2.37201e-05
5.62994e-05
-3.5605e-05
-8.56415e-05
0.000101617
-2.90701e-05
2.1579e-05
-5.19507e-05
6.29295e-06
-5.95587e-05
3.80189e-06
-4.01159e-05
2.21786e-05
-9.73756e-06
6.35827e-05
-2.76126e-05
-2.54394e-05
9.06728e-05
-5.5589e-05
-3.51443e-05
1.47815e-05
-2.30935e-05
3.46851e-05
-4.10143e-05
-1.09315e-05
2.9841e-05
3.45642e-05
-4.78458e-05
-5.78746e-05
-3.7298e-05
3.5862e-05
-1.02362e-05
-1.76753e-05
3.8347e-05
4.55079e-06
-3.07257e-05
-6.31749e-05
6.1905e-06
-5.68886e-05
0.000120349
-0.000117729
-6.80869e-05
1.01877e-05
-1.02156e-05
2.82163e-05
-1.9602e-05
-6.25628e-06
3.50749e-05
9.93162e-06
-5.96484e-05
5.40572e-05
-2.97576e-05
-7.25966e-07
-9.39076e-06
-2.64801e-05
5.89004e-05
9.35846e-05
7.95014e-05
-1.68917e-05
-6.82934e-05
-7.77039e-05
4.75628e-05
-1.31805e-06
1.17446e-05
5.1631e-05
-6.31509e-05
2.21429e-05
3.45722e-05
-3.89619e-05
4.92727e-05
9.85386e-06
-2.73689e-05
-7.18012e-05
-2.20747e-06
9.41218e-06
5.68596e-05
-2.01401e-05
-8.6216e-06
7.08969e-06
9.57167e-07
-2.91979e-05
-3.67719e-05
9.86736e-07
-7.08306e-06
-7.77072e-05
4.07124e-05
2.28038e-05
-2.33531e-05
-2.82727e-05
6.35535e-06
-3.10612e-05
-2.37785e-05
5.87649e-05
3.77754e-05
-8.88546e-05
1.88745e-05
2.82158e-05
2.42071e-05
-1.97265e-05
3.13718e-05
2.6772e-05
-2.78912e-05
-1.1442e-05
4.39791e-05
-1.84714e-05
6.28957e-06
-9.4166e-06
3.67081e-05
-1.65385e-05
-2.21906e-05
-3.26342e-05
2.11541e-05
-9.0529e-05
-2.25265e-05
7.1784e-06
-1.67803e-05
-5.12955e-05
-4.15259e-05
3.02583e-05
1.8758e-05
1.34518e-05
6.79975e-05
0.000103678
-2.68691e-05
-5.62214e-05
-7.36874e-06
-8.72975e-06
-8.22113e-06
-0.000119192
3.07655e-05
9.97079e-05
7.93551e-05
2.35232e-05
2.89513e-06
3.23567e-05
6.61961e-06
-1.27406e-05
-1.12371e-05
3.50235e-06
6.08939e-05
-6.73463e-06
5.99329e-05
-9.10799e-06
-4.9344e-05
-1.25011e-05
-1.79207e-05
3.41778e-05
-3.37977e-05
7.3954e-06
5.94533e-05
0.000102923
1.58965e-05
2.07406e-06
6.60839e-05
-5.49525e-05
-6.42199e-05
4.83636e-06
5.86053e-05
-3.53626e-05
-0.000113618
-3.21872e-05
8.2521e-06
3.03728e-05
4.09468e-06
1.25882e-05
-2.57908e-05
4.03018e-06
-1.99421e-05
-0.000115459
-8.30309e-06
2.34318e-05
1.6768e-05
-9.89973e-06
-1.77942e-05
3.41069e-05
5.3838e-05
-8.89646e-07
-3.26859e-05
-1.44831e-05
1.08393e-05
2.86296e-05
1.41952e-05
-1.13219e-05
4.36336e-05
-9.70054e-06
4.36603e-05
-6.26012e-06
-6.49593e-05
8.33401e-05
7.37375e-06
-2.33591e-05
-5.29964e-05
8.21869e-06
-7.6708e-05
-5.47341e-05
1.69983e-05
-2.35285e-05
6.93032e-05
-5.89243e-05
-1.5897e-05
-3.79654e-06
-4.36555e-05
1.74984e-06
6.90902e-06
-1.56341e-05
-1.2681e-05
-6.31355e-06
-2.87473e-05
6.35843e-05
-1.27361e-05
2.98868e-05
-1.94594e-05
0.00010666
-6.87316e-05
2.64286e-06
7.9783e-05
-7.28979e-05
-2.11621e-05
-1.82842e-06
-5.65464e-06
-3.0719e-05
-1.6659e-07
6.13104e-05
-4.53608e-05
-3.93763e-06
2.74236e-05
5.10011e-05
6.30156e-06
2.15232e-05
-5.93148e-05
-4.52385e-05
-4.56914e-05
-4.39743e-05
-2.38916e-05
-5.03425e-05
-2.24274e-05
-6.2891e-05
1.11952e-05
0.000117078
1.0884e-05
1.60397e-06
7.11624e-06
-1.24834e-05
-9.79602e-05
1.17281e-05
-2.4335e-05
-6.52872e-05
-4.57348e-05
9.77499e-05
-2.84511e-05
2.46852e-05
2.89712e-05
-3.3951e-05
9.1926e-05
-5.06381e-05
-3.1399e-05
4.17698e-07
2.26257e-05
5.23934e-05
-4.63509e-05
3.01958e-06
-7.25876e-05
3.62424e-05
4.53803e-05
5.10279e-05
4.96123e-05
1.14616e-05
6.3146e-06
1.38573e-05
1.41468e-06
1.35632e-05
-5.94298e-05
-5.2609e-05
-3.14447e-05
3.68988e-05
-1.13039e-06
4.39375e-06
1.65974e-05
1.011e-05
-4.56732e-05
-5.67071e-05
-2.16054e-05
3.75358e-06
3.02105e-05
2.47175e-05
-3.70552e-05
-4.68162e-05
-8.03272e-05
-3.89202e-05
8.46452e-05
4.35202e-05
1.98975e-05
-8.17562e-06
-6.95779e-06
-5.38761e-05
3.58439e-05
-6.18506e-05
7.90437e-05
-1.59476e-05
-3.99174e-05
-6.26174e-05
3.51213e-05
5.15335e-05
1.97045e-06
-3.47092e-06
-9.95013e-06
5.45725e-05
-4.35938e-05
-3.20034e-05
3.58506e-05
-2.33703e-05
-7.19388e-06
3.16276e-05
-2.36786e-05
4.79086e-05
6.11597e-05
-1.50184e-05
5.83361e-05
-1.60112e-05
-5.555e-05
-4.11181e-05
3.92952e-05
8.73666e-05
-9.01846e-06
2.39066e-05
5.31236e-05
-2.11853e-06
3.75927e-05
-6.11141e-05
-5.3782e-05
4.7565e-05
-2.97431e-05
-7.41597e-05
-1.3014e-05
3.8289e-06
-4.95899e-05
-1.00627e-05
1.48059e-05
3.36731e-06
-4.77557e-05
-3.26614e-05
4.78001e-06
4.40956e-05
4.04308e-05
-4.65778e-05
-4.65793e-05
9.95421e-06
6.58096e-05
1.77759e-05
-1.76019e-05
-0.000102062
4.74707e-05
-2.01664e-05
-7.77515e-06
-8.79925e-06
4.50332e-05
-5.59143e-06
-5.70058e-05
-1.93107e-05
-3.39666e-05
4.75907e-05
2.16507e-05
-2.22094e-05
-2.47788e-05
-2.54153e-05
-5.89062e-06
-1.15655e-05
-4.13179e-05
-4.02365e-05
1.20606e-06
-4.4826e-05
2.04252e-05
3.38093e-06
-2.82918e-05
3.01641e-05
9.34862e-06
-6.71304e-05
-4.0574e-05
7.09333e-05
-3.39553e-05
-2.67512e-05
2.17736e-05
1.56355e-05
1.44397e-05
-8.9017e-06
-1.19936e-05
1.44318e-05
8.70281e-05
-9.70205e-07
1.24228e-05
-5.5928e-05
-1.92779e-05
3.90811e-05
3.06964e-06
-4.055e-05
7.56653e-06
6.7285e-05
3.94983e-05
-7.4754e-05
-3.48642e-05
2.46881e-05
-5.16152e-05
3.76732e-06
-4.08547e-05
-1.83186e-05
8.32835e-05
-3.53501e-05
-3.5636e-05
-9.10182e-06
-2.37034e-05
-7.61581e-05
-4.31736e-05
-3.44529e-05
3.0332e-05
-5.93199e-05
-4.43419e-05
-1.38482e-05
2.80144e-05
4.43452e-05
7.11239e-06
-4.18397e-07
-3.37957e-05
5.63177e-05
4.62115e-05
-7.51624e-05
0.000106831
-4.85464e-05
-1.38162e-05
-8.41566e-07
-1.47606e-05