# vtk DataFile Version 1.0
Net Charge Density
ASCII
DATASET STRUCTURED_POINTS
DIMENSIONS 256 128 1
ORIGIN 0 0 0
SPACING 0.15625 0.15625 1
POINT_DATA 32768
SCALARS rhonet float
LOOKUP_TABLE default
-3.89607e-06
-9.51278e-05
0.000144792
9.6322e-05
3.56836e-05
0.000120451
-0.000118445
9.18582e-05
0.000154216
2.28996e-05
-3.75602e-05
0.000108726
0.00010382
7.94458e-05
0.000109346
4.99603e-05
8.77432e-05
0.000140236
4.0588e-05
-6.79098e-05
-6.40668e-06
0.00014186
0.000144767
4.77824e-05
3.72682e-05
2.07424e-05
7.74218e-05
9.05889e-05
-1.35214e-05
-7.27423e-05
5.2303e-05
3.97237e-05
4.36688e-05
6.9008e-05
1.2442e-05
0.000171713
1.68073e-05
7.28732e-05
7.73581e-05
-5.53089e-06
2.29321e-05
6.8316e-06
0.000136404
9.39815e-05
2.09387e-05
1.8683e-05
-3.16133e-05
6.9554e-05
0.000116214
7.88725e-05
-1.2008e-05
2.49783e-05
8.34428e-05
0.000148995
3.55955e-05
1.75036e-05
0.000151011
-5.17475e-05
5.67804e-06
7.1696e-05
5.02799e-05
6.06019e-05
7.16757e-06
8.018e-05
8.22491e-05
-8.03829e-05
4.41822e-05
0.000136175
4.09955e-05
4.82836e-05
7.92338e-05
3.67115e-05
-2.69159e-05
4.96678e-05
-1.14553e-07
5.1156e-05
4.20861e-05
-3.83077e-05
9.21622e-05
0.000106615
8.71841e-05
2.54081e-05
7.49616e-05
0.000101106
4.54687e-05
-4.48001e-06
-1.6691e-05
6.70489e-05
0.000119669
-2.34877e-05
9.00029e-05
-1.47951e-05
-3.90528e-05
-6.2146e-06
-8.99177e-05
5.22718e-05
0.000157961
2.40974e-05
9.1688e-05
-2.49448e-05
0.000157723
9.0919e-05
-3.16859e-06
9.47251e-05
3.90385e-05
0.00013097
-2.58558e-07
-6.855e-05
2.66288e-06
7.40001e-05
0.00013342
5.79277e-05
2.0299e-05
3.3116e-05
8.04213e-05
4.36598e-05
1.22655e-05
7.4969e-05
5.09609e-05
4.32277e-05
-3.98799e-05
-3.45636e-05
4.04443e-05
2.44898e-05
0.00011572
6.60872e-05
1.82549e-05
8.13091e-05
1.99639e-05
-1.88102e-05
0.000119797
9.26158e-05
-2.24414e-06
3.77483e-05
2.03246e-05
6.79702e-06
4.46094e-05
-3.1916e-05
4.6896e-05
-1.15026e-05
-4.98411e-05
2.32954e-05
2.09626e-05
0.000160761
9.88226e-05
2.06288e-06
0.000137836
1.15245e-05
-3.11245e-05
0.000132419
1.7827e-05
2.91322e-05
0.000108428
-8.34547e-06
3.45049e-05
4.32305e-05
5.74673e-06
3.42712e-05
-5.27652e-06
1.75431e-05
7.67779e-05
2.50085e-05
0.00011271
-2.20696e-05
3.25855e-05
2.55235e-05
5.84617e-05
-6.12723e-05
0.000105448
0.000137295
2.50293e-05
4.32237e-05
7.45822e-05
0.000111579
-2.02686e-05
-8.13371e-06
8.72933e-05
-8.23225e-05
1.1557e-05
3.31802e-05
8.8769e-05
-7.05998e-05
-3.18112e-05
5.65359e-06
1.04986e-05
7.98531e-05
4.14201e-05
7.20924e-05
0.000102554
7.46856e-05
2.4884e-05
0.000198124
8.16119e-05
-6.56995e-05
6.24206e-05
0.000201229
4.75221e-05
8.32756e-05
7.86672e-05
-1.6309e-05
5.95989e-05
0.00014917
4.39013e-05
3.83351e-05
-1.00756e-05
6.97705e-05
-5.98875e-05
5.34235e-05
6.86803e-05
8.57904e-05
6.81023e-05
0.000137439
0.000106097
-2.40525e-05
0.00011108
-0.000131281
0.00010269
9.90944e-05
-5.28726e-05
-3.79212e-05
8.6974e-05
0.000114877
0.000176992
3.40519e-05
7.95298e-05
5.67448e-05
-3.69138e-05
-1.51404e-05
8.69043e-05
6.8607e-05
6.22752e-06
4.16544e-05
2.36375e-05
2.60695e-05
0.000121307
-3.55695e-05
-2.05772e-05
2.75011e-05
5.9451e-05
8.98028e-06
1.84993e-05
8.66944e-05
-5.82666e-05
-3.07336e-07
2.659e-05
-1.44092e-05
-2.21962e-05
-3.95468e-05
0.000128655
-4.29631e-06
2.10485e-05
-3.85132e-05
0.000102293
2.1438e-05
2.40528e-05
4.18611e-05
-0.000104899
2.47047e-05
-6.30291e-05
-2.51193e-05
-2.38867e-05
5.1226e-05
-2.60444e-05
-7.57639e-05
4.98928e-05
-6.60464e-05
-4.29004e-05
2.33414e-05
-5.99086e-05
-8.02729e-05
3.00258e-06
-4.24258e-05
4.6622e-06
1.08911e-05
-2.15748e-05
-4.06045e-06
-5.82075e-05
-6.74936e-05
-0.000106138
-1.79198e-05
-2.00449e-05
-5.72721e-05
-2.5277e-05
7.73033e-06
-3.0741e-05
-8.53871e-05
-3.53884e-05
-8.36106e-06
2.74422e-05
-7.95681e-05
-6.67478e-05
2.31335e-05
-0.000103178
-3.37884e-05
1.98346e-05
-8.2033e-05
-5.15862e-05
-4.38408e-05
8.67283e-06
3.56e-05
-2.47126e-05
4.87361e-06
-0.000112384
-3.15171e-05
3.88795e-05
-3.39417e-05
-6.56131e-05
-4.11934e-05
-3.17376e-05
2.98235e-05
-2.85315e-05
-3.54572e-05
-2.34873e-05
-0.00011611
1.48097e-05
-3.3793e-05
4.56312e-05
-5.12691e-05
-5.72846e-05
-3.73455e-05
-3.01468e-05
-6.05665e-05
-1.00289e-05
-7.96338e-05
-0.000109192
1.21049e-05
-4.39814e-05
9.01707e-06
-1.84363e-05
1.72417e-05
-5.13531e-05
-1.04343e-05
4.76098e-05
-2.54938e-05
5.74086e-05
2.163e-07
-3.24118e-05
-5.04444e-05
-8.22556e-05
2.84828e-05
2.44665e-05
-6.16943e-05
-0.000158636
-4.16979e-05
-6.56582e-08
-1.69137e-05
8.77364e-06
5.33122e-05
3.15672e-06
-1.07941e-05
2.47142e-05
-5.96512e-06
3.43233e-05
-2.73113e-05
-6.84732e-06
-1.89489e-06
-4.3644e-05
-0.000106618
-3.96519e-05
-2.96773e-05
-3.55607e-05
1.64218e-05
-5.91243e-05
-4.27178e-05
-1.06671e-06
-5.9997e-06
5.43523e-05
-3.54246e-05
-7.13795e-05
-7.13186e-05
4.01702e-05
1.15478e-05
-5.2352e-05
-1.11546e-05
9.64548e-06
3.1899e-05
-8.5775e-05
1.39619e-05
-6.1379e-05
-7.74174e-06
-3.48632e-05
-1.67092e-05
-4.55658e-05
-6.96025e-05
1.70248e-05
-4.88105e-05
-2.07974e-05
1.59816e-05
-1.05534e-05
-2.35438e-05
-1.24412e-05
-3.31039e-05
-4.6012e-05
-1.3358e-05
-4.22456e-05
-8.32253e-06
-5.94473e-05
-7.82579e-05
8.69716e-06
-2.01946e-06
-8.38246e-05
1.05487e-05
-3.22359e-05
-4.36765e-05
-0.000117681
-8.72544e-06
-3.99577e-05
-3.83074e-05
-7.16742e-05
9.37085e-06
3.00049e-05
-1.70398e-05
-2.39995e-05
-1.85554e-06
-5.11226e-05
-2.02563e-05
-8.13488e-05
-6.40946e-05
3.62427e-05
-8.0271e-05
-7.56269e-06
2.37462e-05
2.21169e-05
-5.27819e-05
-2.42493e-06
3.60706e-05
-9.46561e-05
1.02381e-05
-2.21479e-05
3.97032e-05
-4.13512e-05
-2.55479e-05
-5.70144e-06
3.04065e-05
-6.90704e-05
-4.77679e-05
3.67512e-05
-4.79678e-06
2.05822e-06
-4.86561e-05
-0.000107547
-6.60246e-05
-2.6601e-05
-2.24796e-05
-9.33011e-06
-1.88574e-05
-0.00010145
6.32298e-06
3.69593e-05
4.61098e-06
-1.08497e-05
-2.3655e-05
-8.5084e-05
-3.90904e-05
4.81103e-05
-6.97793e-06
-7.51883e-05
-6.46277e-05
-4.37903e-05
3.07555e-05
-5.53516e-05
1.83098e-06
-5.12165e-05
9.71674e-05
1.17969e-05
-4.14061e-05
-5.22414e-05
-4.83998e-05
-4.73992e-05
3.2125e-05
-3.50833e-05
-7.29871e-05
1.69734e-06
-2.53883e-05
-1.98883e-05
4.50562e-06
-1.73196e-05
7.05675e-05
5.7089e-05
-6.70662e-05
-3.48982e-05
-2.73385e-05
-7.02044e-05
-2.06061e-05
2.42676e-05
8.58856e-05
-8.70347e-05
6.93498e-06
-4.34539e-05
-3.62697e-05
6.90324e-05
3.75881e-05
-6.27585e-05
-4.99119e-06
2.55421e-05
-5.11215e-05
2.26246e-05
-1.34825e-05
-4.80206e-05
-1.98237e-05
3.05462e-06
3.73246e-05
3.42671e-05
-1.23483e-05
-2.31673e-05
-0.000132199
-1.66008e-07
-7.60634e-06
5.12581e-05
-7.35326e-06
-7.36316e-05
5.01703e-06
-3.30425e-05
-1.99105e-06
5.00254e-05
-7.79761e-06
-2.33894e-05
-8.48016e-06
1.05402e-06
-1.92299e-05
7.13231e-05
-5.15233e-05
7.82241e-06
3.11635e-05
6.53439e-05
-4.67902e-05
-2.9064e-05
-1.14908e-05
-2.49564e-05
-9.34287e-05
-2.04819e-05
3.51594e-05
4.8863e-05
3.6408e-05
-1.6453e-05
3.77696e-05
6.14579e-05
-4.75246e-05
4.48455e-05
4.40086e-05
9.82289e-06
-5.10868e-05
1.2307e-05
2.34437e-05
7.04302e-05
4.96679e-05
-3.57153e-05
2.2529e-05
5.27361e-06
-2.51161e-05
4.80091e-05
3.404e-05
2.11629e-05
-2.89201e-05
-7.34257e-05
2.16749e-05
3.48728e-05
1.42097e-06
-4.63353e-05
1.81748e-06
-1.65715e-05
5.22437e-05
1.92708e-05
-4.25107e-05
-9.05943e-05
6.88457e-06
2.94279e-05
9.4329e-06
3.90763e-05
-4.01762e-05
2.79769e-05
-3.30702e-05
9.02754e-05
1.87051e-05
2.19359e-05
-2.38948e-05
3.89213e-05
7.95072e-05
-1.43028e-06
-1.07865e-05
-4.31233e-05
-5.6342e-05
3.65553e-05
5.69166e-06
-2.97666e-05
3.18501e-05
-3.75106e-05
-1.97688e-05
6.36958e-05
5.06419e-05
-4.80589e-05
-4.18762e-05
-9.31229e-06
-2.63561e-05
-1.33654e-05
5.0945e-05
7.4107e-05
-1.38808e-05
-5.52139e-05
-6.02389e-05
2.25465e-05
4.01656e-05
-3.5647e-05
4.60864e-05
6.04027e-05
1.00416e-05
-2.72852e-05
-6.8402e-05
1.03845e-05
-3.90667e-05
-6.67314e-05
1.89327e-05
-3.86641e-05
-7.26082e-05
1.55349e-05
3.44657e-05
-9.18168e-06
-2.52385e-05
3.49995e-05
6.71942e-05
-7.81449e-06
-2.34845e-05
1.90875e-05
-3.45565e-05
-3.24659e-06
3.17623e-05
-4.33624e-05
-4.44568e-05
-1.29166e-05
6.19073e-05
-1.54723e-05
-1.92422e-05
-9.33185e-07
1.07803e-05
-2.67865e-05
6.43288e-05
6.28759e-07
3.1611e-05
-3.45437e-05
-2.02109e-05
3.29814e-05
-8.92964e-06
-5.33774e-05
-6.58392e-05
-1.9774e-05
2.38372e-06
3.65474e-05
8.36782e-06
-1.87778e-06
1.4829e-05
-2.7574e-05
4.24776e-05
2.79525e-05
9.69104e-05
6.65832e-05
1.94268e-05
1.4567e-05
-1.36637e-05
5.90177e-05
5.77692e-05
-3.53307e-05
8.6556e-05
-1.88488e-05
-2.10225e-05
-5.3936e-05
1.12336e-05
-1.22988e-05
7.03167e-05
-1.07869e-05
6.14906e-06
5.77935e-05
3.47513e-05
-3.56397e-05
-5.85616e-06
4.38264e-05
2.99955e-05
1.48885e-05
3.09397e-06
-6.29971e-05
1.44145e-05
-9.34468e-05
4.10875e-05
-3.3416e-05
-7.29717e-05
6.78631e-06
-4.31379e-05
3.26067e-05
-5.40689e-05
-3.51892e-05
-7.3812e-06
-3.46784e-05
7.78097e-06
5.28585e-05
1.66985e-05
-1.61538e-06
7.61896e-05
-2.89606e-06
5.27899e-05
3.30987e-05
2.69058e-05
3.20111e-05
-4.14015e-05
-7.91213e-05
6.70343e-06
-3.71061e-05
3.38303e-07
3.12884e-05
2.55893e-05
4.62438e-05
-7.34453e-06
3.85572e-05
-1.82486e-05
8.60401e-05
-3.51761e-05
-2.42105e-05
-2.44789e-05
3.96877e-05
3.96363e-05
-5.59574e-06
-1.59821e-05
5.26489e-05
-3.1283e-05
-9.51323e-06
1.32091e-05
3.03076e-05
4.0144e-05
-6.21304e-05
6.55744e-06
-4.02806e-05
7.6817e-05
-2.30571e-05
2.42726e-06
-2.36238e-05
-7.65733e-06
1.05577e-06
-7.58456e-05
1.89046e-05
4.24926e-05
2.7332e-06
-4.68809e-05
-0.000111356
2.3297e-05
1.9282e-05
1.66986e-06
4.1142e-05
-1.26259e-05
3.11469e-06
-2.154e-05
-7.41893e-05
3.57793e-05
1.81665e-05
-4.43214e-05
1.38062e-05
2.4942e-05
-1.4007e-05
-5.45266e-05
-1.59669e-05
4.84828e-05
-4.4998e-06
-0.000139603
5.79742e-05
3.08054e-05
0.000100899
-3.72754e-05
3.82715e-05
1.96726e-05
-2.19457e-05
-3.1699e-05
-3.15022e-05
5.79791e-05
8.84748e-05
-9.06736e-06
-5.99881e-05
9.21846e-06
8.46433e-06
-1.851e-08
-2.07851e-05
-3.90373e-05
0.000130275
-3.43213e-05
-4.70515e-05
5.3711e-05
-2.7963e-06
2.82284e-06
-3.79189e-05
-6.05411e-05
4.75424e-05
4.8436e-05
-1.75369e-05
3.74631e-05
-5.19105e-05
4.18173e-05
3.39497e-05
-6.99728e-05
2.73657e-05
3.88062e-05
1.67808e-05
-5.26786e-05
6.28696e-05
-2.19634e-05
-4.31015e-05
-7.40378e-06
-2.6679e-05
4.25467e-05
3.65044e-06
2.75732e-05
-4.73876e-05
-6.43777e-06
3.03091e-05
-2.26299e-05
-8.19344e-05
-4.95826e-05
1.36239e-05
3.36363e-05
4.53519e-05
-3.78168e-05
6.72042e-05
-2.0206e-05
-6.23035e-05
4.74702e-05
4.62764e-05
1.24053e-05
3.82878e-05
2.15037e-05
5.87143e-05
-6.5e-05
-4.25666e-05
-1.34129e-05
4.39066e-05
4.787e-05
-2.23201e-05
-6.05177e-05
1.98325e-06
-2.43739e-06
-3.0012e-05
1.48917e-05
2.92049e-05
7.28866e-05
7.06632e-05
-3.58252e-05
-0.000140627
2.58454e-05
1.20315e-06
-2.88258e-05
-4.69697e-05
5.72426e-05
3.12583e-05
1.75572e-05
-0.000107817
-1.58473e-05
1.13326e-05
3.9952e-05
3.28145e-05
-4.30099e-05
3.20359e-05
3.74885e-05
-3.91935e-05
2.83308e-05
3.71941e-05
-1.37137e-05
3.56362e-05
-5.44169e-05
8.3045e-05
3.03246e-05
-1.94276e-05
-2.67294e-05
6.84278e-05
4.1218e-05
-2.91597e-05
3.35351e-05
3.92133e-05
3.68367e-05
-3.48367e-05
-2.81518e-05
1.41675e-05
3.52946e-05
-7.1567e-05
-2.16158e-05
4.60049e-05
3.64996e-05
2.3186e-05
-3.12361e-05
-7.13483e-05
2.25478e-05
-3.52727e-05
7.69856e-05
-4.16432e-05
-1.3786e-05
7.45145e-05
-5.40665e-05
4.00434e-06
-1.77843e-05
-5.58052e-05
2.01231e-05
5.95965e-06
5.05822e-05
6.3116e-05
-6.58253e-05
8.14189e-05
-4.32242e-05
-2.44335e-05
2.67201e-05
4.39445e-06
9.56794e-06
7.65501e-06
4.39072e-06
-4.22165e-05
2.17032e-05
1.01279e-05
-1.56356e-05
-7.88147e-05
-2.79717e-05
-7.33114e-06
2.6283e-05
6.22845e-06
2.384e-05
-8.04034e-06
5.26166e-05
3.00959e-05
-3.07952e-05
-8.68585e-05
1.14744e-05
3.87332e-05
1.11606e-05
-2.85617e-05
-9.12452e-06
-2.48104e-06
2.21187e-05
-3.22936e-06
2.53449e-05
2.2546e-05
3.20965e-05
-2.08736e-05
-3.06312e-06
6.05604e-06
-3.41434e-06
3.49664e-05
-2.44876e-05
5.34736e-05
1.96631e-05
1.27879e-05
-1.15683e-05
2.92526e-05
2.87138e-06
3.39595e-05
-1.87161e-05
-2.88652e-06
-6.90417e-05
2.46684e-05
-5.03962e-06
-1.26841e-05
2.05984e-05
-2.63405e-05
-2.66172e-06
-3.02471e-05
-7.38937e-05
-1.1655e-05
0.000124286
-9.67181e-05
2.30563e-05
4.08876e-05
1.12086e-05
1.89696e-05
2.29755e-05
-6.50398e-05
-1.85561e-05
-3.58936e-05
9.88878e-06
-2.25087e-05
-0.000114619
5.06435e-05
-0.000120174
-5.21552e-05
0.000129995
-2.85544e-05
-3.29316e-05
1.39817e-05
-3.08792e-06
-4.58467e-06
-6.87174e-05
5.01284e-07
2.5406e-05
-3.06811e-05
-4.83701e-05
-2.09835e-05
3.77459e-05
3.99086e-05
1.09901e-05
-3.37753e-05
2.43066e-05
4.91923e-05
4.58611e-05
-7.13917e-05
-6.57422e-05
-4.48676e-05
5.14662e-05
2.45054e-06
-1.54681e-06
-6.96708e-05
3.42494e-07
-1.04234e-05
6.89412e-06
-2.29038e-05
-2.35555e-06
-3.0622e-05
3.27415e-05
-3.22692e-06
-1.03374e-05
-2.52571e-05
2.84621e-05
9.52233e-05
-3.02618e-05
3.21709e-05
4.43812e-05
-4.5409e-05
-0.000101101
-3.30774e-05
0.00011101
6.25441e-05
-5.28273e-05
-0.000107186
-1.18123e-05
6.8567e-05
3.46118e-05
-5.40467e-05
-5.21373e-05
4.75175e-05
-4.06366e-05
-0.000119435
6.12033e-05
-1.81567e-05
-3.11726e-05
0.000105493
-4.5473e-05
-9.29438e-05
-5.38457e-05
9.50508e-06
-5.54991e-05
1.67233e-05
4.28164e-06
-7.23699e-05
6.52438e-06
4.59246e-05
6.77712e-06
-2.0666e-06
5.32217e-05
2.83383e-05
-3.75983e-05
-4.8551e-05
0.000104193
-1.62809e-05
-5.72787e-06
-2.96996e-05
-2.67266e-06
-4.58119e-05
8.22754e-06
-1.31109e-05
-4.38881e-05
-3.3671e-05
-5.49544e-05
4.80607e-05
-3.43912e-05
5.50936e-05
-3.26771e-05
-2.49941e-05
-9.60962e-06
3.26959e-05
-4.34383e-05
8.21742e-05
3.99037e-06
1.01078e-05
-2.64163e-05
-1.68523e-06
5.18312e-05
-5.05236e-05
7.65342e-05
-2.69969e-05
-2.84483e-05
5.25278e-06
1.91299e-05
5.75269e-05
-1.55073e-05
1.41473e-05
1.54799e-05
9.67545e-05
-2.60593e-05
2.79676e-06
-6.86486e-05
-4.36418e-06
5.35569e-06
-6.23288e-07
-1.12272e-05
2.76114e-05
-7.06455e-05
2.3887e-05
3.64641e-05
-5.86093e-06
-1.47329e-05
5.85361e-05
-1.46334e-06
5.05475e-07
-8.36398e-06
-6.68821e-05
-7.45873e-06
-5.66774e-05
5.49147e-05
-1.55686e-05
-6.51167e-05
1.9397e-05
-2.50085e-05
1.49545e-05
4.44497e-05
-8.879e-06
-5.64916e-05
-7.07044e-05
-8.34174e-06
-2.96294e-05
-2.1524e-06
-1.83217e-05
-1.89315e-06
-0.000102778
8.74791e-06
3.24817e-05
3.07963e-05
-0.000103662
-3.61556e-05
2.02421e-05
8.39112e-05
4.75231e-06
-1.31457e-05
3.19697e-05
7.14906e-07
-3.71368e-05
-7.51378e-05
-6.92116e-05
-2.21259e-06
-7.09703e-05
1.36672e-06
-4.37517e-05
5.21004e-05
-3.20338e-05
-2.11224e-05
9.38168e-06
-1.06054e-06
4.85079e-06
-2.59295e-05
5.72978e-05
-2.03848e-05
4.02206e-05
1.71232e-05
-4.36114e-05
4.79119e-06
-4.09901e-05
-3.49246e-07
2.30942e-05
-3.31627e-05
1.34481e-05
1.23585e-05
-2.61036e-05
-4.6381e-05
1.17682e-05
-4.40207e-05
0.000100773
4.16171e-05
5.95758e-05
5.72717e-06
3.63518e-06
3.72173e-05
-2.83869e-05
-2.65322e-05
-3.8704e-05
-3.32444e-05
-2.94461e-06
-4.83403e-06
-7.42382e-05
-9.21183e-05
-4.12922e-05
9.36044e-05
1.79685e-05
2.46147e-05
5.07901e-05
-3.90921e-05
-4.86939e-05
-6.07771e-05
2.9187e-05
-7.01527e-05
2.39772e-05
5.70999e-05
1.43811e-05
-8.54442e-05
6.48928e-05
5.64102e-06
1.15007e-05
-0.000120717
5.33732e-05
7.36078e-05
5.39119e-06
1.3874e-05
1.1842e-05
-9.65083e-06
3.66952e-05
-3.03431e-05
4.71815e-05
6.17247e-05
-4.68071e-06
-4.04327e-05
-2.98404e-05
4.83391e-06
-1.19209e-06
4.36943e-05
-1.84891e-06
-1.13773e-05
-1.70614e-05
7.82474e-05
-4.58397e-06
1.79142e-05
-3.62857e-05
-7.7863e-05
7.38347e-05
-9.19309e-05
-5.20796e-06
2.09284e-05
2.30572e-06
7.05894e-05
3.8381e-05
7.42089e-06
5.50147e-05
-1.01444e-05
4.60939e-05
-1.68377e-05
-5.88754e-05
-4.91898e-05
5.14213e-05
5.45883e-05
-1.98534e-05
5.81006e-05
3.02006e-05
1.38804e-05
2.24962e-05
6.25566e-05
6.90215e-06
-8.80081e-05
-1.34251e-05
-5.00714e-06
4.87005e-05
5.99251e-05
6.30917e-05
1.42655e-06
2.14427e-05
-2.66384e-05
-9.90438e-06
-6.22049e-05
-1.60284e-05
3.25943e-05
-3.85352e-05
-1.90418e-05
5.3153e-05
-2.28166e-05
1.54098e-05
-4.23559e-05
-5.64964e-07
-5.11485e-05
-1.07912e-05
-0.000114607
2.06351e-05
1.91705e-05
7.28536e-05
2.73276e-05
-4.94906e-05
5.0578e-05
5.27872e-05
6.41989e-05
-7.98982e-06
4.43966e-05
-4.86515e-05
-2.58868e-05
-3.12885e-05
9.76641e-05
-4.46026e-05
-4.87096e-05
2.70447e-05
-5.04584e-05
1.36549e-05
-9.01837e-05
-0.000131356
6.04802e-05
5.6749e-05
-1.70093e-05
2.47727e-05
-9.10845e-06
5.16701e-05
-8.06586e-05
3.82912e-05
3.78344e-05
1.5907e-05
-7.9762e-06
-6.65535e-06
3.57414e-05
3.13774e-05
-9.32619e-05
-4.72956e-05
-9.38082e-05
-4.97692e-05
6.84736e-05
-3.54392e-05
9.14512e-06
-3.66233e-05
3.87209e-05
1.69352e-05
4.47608e-05
-5.40491e-05
2.94943e-05
6.61315e-05
1.22406e-05
-6.64287e-05
1.13354e-06
1.48163e-05
-1.36932e-05
6.08943e-05
-9.08971e-07
7.89311e-05
9.09739e-06
5.26163e-05
-9.66365e-05
3.41132e-05
6.60634e-06
-1.27824e-05
-4.43456e-05
-2.06704e-05
3.15008e-06
-9.30973e-07
-6.3061e-05
-0.000100799
-4.15868e-05
-9.15078e-05
-4.81864e-05
5.62924e-05
-1.52458e-05
-5.2291e-05
-2.41195e-05
-1.0829e-05
-4.57689e-05
-4.23098e-05
1.19053e-05
2.83611e-05
-1.41363e-05
-5.2825e-05
-6.13482e-05
1.77321e-05
1.0733e-05
-2.08277e-05
5.96304e-05
1.79058e-06
2.51194e-05
-2.36357e-05
5.88677e-05
3.18954e-05
4.76106e-05
-7.3189e-05
7.22467e-05
-0.000100922
-6.24033e-06
6.4932e-05
8.48947e-06
3.23066e-05
-3.3062e-06
-4.32198e-05
2.37848e-06
1.99962e-05
-1.27291e-05
9.59332e-06
3.61402e-05
2.75431e-05
6.9214e-05
-2.72389e-06
-6.32241e-05
-6.1458e-06
-7.61147e-06
-1.02114e-05
4.45042e-05
5.20109e-06
2.67313e-05
-6.62939e-06
-4.79829e-06
-2.948e-05
1.43551e-05
5.68898e-06
6.79193e-05
9.01218e-06
3.43911e-05
1.84254e-05
1.29041e-05
-4.46514e-05
3.45935e-05
3.36549e-05
1.93866e-06
-1.88093e-05
4.4687e-05
-5.23893e-05
6.75361e-05
7.74649e-05
6.37164e-06
8.13846e-05
-3.18105e-05
2.20672e-05
-1.73562e-05
-2.87804e-05
-6.86576e-05
1.19234e-05
2.47908e-05
1.23703e-05
-3.48674e-05
2.16777e-05
-2.20754e-05
-3.52529e-06
1.2335e-05
1.70921e-06
2.97129e-05
-6.88565e-05
-1.33736e-05
9.18964e-05
-3.43513e-05
1.47282e-05
-1.23633e-05
4.94565e-05
2.42061e-05
-4.44679e-05
5.05936e-05
0.000106778
9.66933e-05
6.52508e-05
8.90577e-07
-7.20727e-06
-1.14562e-05
6.66908e-05
-5.44812e-06
4.01792e-05
-2.33972e-05
4.17562e-05
-3.41275e-05
-2.13975e-05
6.28131e-06
-2.6264e-05
3.5821e-05
-8.93138e-05
4.69463e-05
-3.57555e-05
3.30252e-05
2.34639e-05
-9.97117e-05
2.21336e-05
3.57013e-05
-1.87468e-05
2.13266e-05
-6.78236e-05
2.71616e-05
-5.16979e-05
5.68146e-05
4.88434e-05
-1.74812e-05
3.80415e-05
4.54172e-05
1.17874e-05
-8.37969e-06
2.07491e-05
-2.05638e-05
5.28253e-05
-7.5706e-05
-4.26271e-05
-7.67247e-06
2.04986e-05
-1.54356e-05
-3.12328e-05
1.17396e-05
6.21646e-05
4.88076e-05
4.33647e-06
-0.00012757
-5.02247e-05
-6.8667e-05
-6.60997e-05
3.09143e-05
7.61512e-05
-7.01358e-05
-7.03044e-06
9.28552e-06
4.82404e-05
3.84019e-06
8.47271e-06
-6.75768e-05
-1.85833e-05
1.21729e-05
-8.66817e-06
-3.19517e-05
-1.42832e-05
3.18338e-06
7.33044e-06
1.82407e-05
2.56514e-05
-6.78833e-05
-4.71354e-06
3.49289e-05
-5.05332e-05
1.07933e-05
-1.50148e-05
-1.6305e-05
-2.95397e-05
9.53889e-05
2.63908e-05
-1.76688e-05
-2.15021e-05
-1.27995e-05
8.03277e-06
-1.35803e-05
2.63903e-05
-7.1855e-06
-1.90849e-05
2.17279e-05
5.39329e-05
-9.03432e-05
5.79043e-05
-1.44776e-05
-1.46057e-05
-3.83226e-05
-4.54386e-05
2.6162e-05
5.74822e-05
2.07162e-05
1.80587e-05
2.61934e-05
-7.22148e-06
-2.65966e-05
2.38706e-05
-3.81796e-05
-3.29991e-05
2.86612e-05
4.19561e-06
5.34144e-05
-1.29023e-05
-4.54613e-06
9.10501e-05
1.63324e-05
1.69137e-05
-4.63274e-05
3.55745e-05
-3.91719e-05
2.29462e-05
1.72229e-05
3.08687e-06
6.80585e-05
6.72806e-05
-1.70229e-05
-7.54732e-06
4.55868e-05
-1.23875e-05
-6.61262e-06
0.000122596
3.2628e-05
1.82131e-05
2.49495e-05
-5.22539e-05
-2.22388e-05
-5.70167e-05
1.30467e-06
7.69075e-06
2.41779e-05
1.07714e-05
-5.20683e-05
1.76704e-05
6.44929e-05
-6.11888e-05
5.44077e-05
-4.49327e-05
-7.05201e-05
6.2309e-06
3.27919e-05
4.70877e-05
1.32713e-06
1.32958e-05
-7.78604e-05
-2.81836e-05
-6.8926e-06
0.000112601
3.68478e-05
-3.34253e-05
4.85629e-05
3.18351e-05
1.1489e-05
6.94898e-05
0.000133271
-7.38587e-05
-4.20369e-05
-1.68968e-05
2.04111e-05
8.13301e-06
-1.95549e-05
3.47552e-05
5.05911e-05
-6.3039e-05
-4.22689e-05
1.79621e-05
5.70343e-05
-6.67176e-07
2.83978e-05
-3.47799e-05
-8.23163e-05
-3.1693e-05
-5.51018e-05
-1.69486e-05
6.43985e-05
-5.57769e-05
5.2521e-05
-0.00011234
-7.10647e-05
-1.52234e-05
-1.60272e-05
-3.593e-05
5.28325e-05
4.40275e-05
-4.7544e-06
-6.05778e-05
-2.03259e-05
1.72128e-05
2.40903e-05
-2.14999e-05
-3.80286e-05
1.84213e-05
-5.22967e-05
-1.48048e-05
-9.04265e-05
-1.86138e-05
-1.40988e-05
0.000121308
-2.54699e-05
5.25203e-05
3.7947e-05
3.11938e-05
-3.85306e-05
-5.10237e-06
-4.49657e-05
2.62945e-05
1.12427e-05
-1.86053e-05
1.74433e-05
-3.76214e-05
8.71078e-06
-3.17958e-05
7.14655e-05
-7.47017e-05
0.000101809
5.19645e-05
3.18051e-05
1.9415e-05
4.63659e-05
-3.0048e-06
1.62401e-05
7.99994e-05
3.67581e-06
-1.37989e-05
-5.2109e-05
-5.62185e-05
2.68223e-05
-3.78026e-05
-4.78232e-05
2.88635e-05
-2.68989e-05
-1.16543e-05
-5.02804e-05
3.10768e-05
-2.00595e-05
3.81089e-05
-8.71741e-05
-4.69047e-05
1.67192e-05
4.92437e-05
9.12836e-06
1.42562e-06
-6.69423e-05
-7.273e-05
-1.43618e-05
-9.74478e-06
-1.56979e-05
2.67382e-05
-9.21227e-05
-5.88647e-05
-1.2588e-05
5.10602e-05
-8.97484e-05
7.86014e-05
1.30895e-05
1.51682e-05
-0.000114672
-4.19709e-05
1.06478e-05
8.84156e-05
-6.75302e-06
-6.93055e-06
1.08085e-05
-9.15199e-05
-1.49586e-05
1.07785e-05
5.18087e-05
-3.28287e-05
4.25938e-05
9.43069e-06
7.85221e-07
4.03614e-05
-3.83449e-06
2.66724e-05
-2.21871e-05
6.11413e-07
2.16393e-06
1.83085e-05
-2.01631e-05
-7.52348e-05
-8.20153e-05
-4.08833e-05
3.06885e-05
3.11452e-05
-1.76033e-05
-1.14895e-05
3.87502e-05
9.27376e-06
1.17531e-05
-4.44871e-05
-5.27482e-05
-4.2652e-05
9.60722e-05
-3.91061e-05
-6.17569e-05
-4.51251e-05
4.72029e-06
-4.1578e-05
-1.74739e-06
2.57663e-05
4.81147e-05
-3.50769e-05
2.89145e-05
3.42642e-05
2.19494e-05
-2.03146e-05
-2.84297e-05
2.95845e-05
6.23255e-05
1.81487e-05
-1.77101e-05
-4.22894e-05
-3.51784e-06
6.32218e-05
3.54648e-06
7.63161e-06
-5.2941e-06
1.01693e-05
2.74982e-05
2.91363e-05
-2.60756e-05
-5.97399e-05
8.67879e-05
3.29309e-05
-1.45724e-05
-1.4237e-05
5.72901e-05
3.8431e-06
9.81891e-05
0.000121367
-2.85938e-05
2.49981e-05
7.87177e-06
-1.86715e-05
-1.70155e-05
-7.32376e-05
0.000112081
-1.25971e-05
-6.01779e-05
7.86281e-06
3.08841e-05
9.78378e-06
7.84104e-06
1.71362e-05
4.78467e-08
-2.67227e-05
-2.56816e-05
-4.1337e-05
-4.55838e-05
-1.76234e-05
-7.76595e-06
-4.82699e-05
7.13977e-05
1.64241e-05
3.01735e-05
-3.196e-05
1.39839e-05
-1.39402e-05
-1.55891e-05
4.4764e-06
-1.65855e-05
8.27657e-05
5.56016e-05
5.67269e-06
3.54114e-05
2.86207e-06
-1.63056e-05
2.07499e-05
9.63197e-06
-1.45009e-05
-4.88879e-05
-4.07483e-05
-9.69181e-06
4.12576e-05
-2.15804e-05
-3.41528e-05
5.64969e-05
-1.37313e-05
-5.04197e-05
3.84743e-05
-2.33627e-05
-1.19652e-06
-5.9447e-05
5.95255e-06
6.40079e-05
-7.39726e-05
-2.23716e-05
-4.28862e-06
-7.43158e-05
-1.58094e-05
5.6006e-05
-2.4102e-05
5.20144e-05
4.58724e-05
-3.16435e-05
0.000122278
2.89963e-05
1.20705e-05
-2.74095e-05
-3.44673e-05
-3.20204e-05
5.98464e-05
4.27905e-05
-2.54266e-05
-1.62863e-05
4.25256e-05
4.5598e-05
-7.0805e-05
-4.53846e-05
-1.75915e-05
6.00135e-05
3.70808e-05
4.36982e-05
-7.64476e-06
2.17555e-05
1.4843e-05
1.4781e-05
3.49523e-05
1.44991e-05
-7.17349e-05
5.90797e-05
3.93532e-05
-1.62116e-05
4.74531e-05
-1.84561e-05
-3.84231e-05
8.46087e-05
5.78981e-05
5.29938e-05
-2.82951e-05
-1.40262e-05
-3.38187e-06
6.56863e-05
1.70158e-05
1.81666e-05
-1.45185e-05
-3.22151e-05
8.30111e-06
5.70648e-05
3.72092e-05
6.89616e-05
3.92867e-05
3.07859e-05
-1.59348e-05
4.17496e-05
8.47282e-06
-3.21824e-05
-1.07551e-05
-1.45922e-05
5.39323e-05
1.21888e-05
2.11238e-05
-2.64749e-05
1.12986e-05
-2.3908e-05
-1.4451e-05
1.09985e-05
-7.73498e-06
4.69014e-06
1.68594e-05
6.67057e-05
1.5799e-05
-0.00010758
-8.24989e-05
6.52252e-06
-5.85075e-05
5.17322e-05
1.84859e-05
1.6677e-05
-7.07682e-05
5.68514e-06
-1.86221e-05
-4.33435e-05
5.83278e-05
-4.15354e-05
-7.76742e-05
-1.33212e-05
-3.74747e-05
-1.09989e-06
5.06309e-05
3.43447e-05
5.21394e-05
2.95312e-05
4.71437e-05
-2.02372e-05
0.000134813
5.51662e-05
-3.82705e-05
-1.1221e-05
0.000111733
1.12818e-06
-1.38332e-05
-2.07328e-05
-1.05335e-05
5.75103e-06
2.51082e-05
-6.47187e-05
1.22213e-06
0.00011825
2.02319e-05
-6.96782e-05
-8.34579e-05
9.06889e-05
4.29547e-05
-6.09937e-05
-2.33657e-06
4.5239e-06
-2.48612e-05
-7.4984e-05
-6.30156e-06
3.3979e-05
6.28864e-05
-2.65858e-06
-2.97537e-05
-6.67723e-05
-1.08315e-05
7.42357e-06
3.03186e-05
-1.26915e-05
1.26483e-05
-3.24745e-05
-1.5403e-05
4.65962e-05
-6.06873e-07
-7.33233e-05
-3.61169e-05
3.1934e-05
5.07128e-05
5.52053e-05
-3.86607e-05
-2.7102e-05
-1.73191e-06
4.00441e-05
-1.2883e-05
1.15242e-05
2.75385e-05
1.5101e-05
2.02361e-05
3.27821e-05
-0.000103584
-2.37203e-05
5.62989e-05
-3.56042e-05
-8.56414e-05
0.000101618
-2.90698e-05
2.15786e-05
-5.19506e-05
6.2933e-06
-5.95588e-05
3.80212e-06
-4.01158e-05
2.21783e-05
-9.73779e-06
6.35826e-05
-2.76123e-05
-2.54393e-05
9.06732e-05
-5.55884e-05
-3.51447e-05
1.4781e-05
-2.30945e-05
3.46847e-05
-4.10143e-05
-1.09319e-05
2.9841e-05
3.45645e-05
-4.78458e-05
-5.78749e-05
-3.72981e-05
3.58616e-05
-1.02357e-05
-1.76751e-05
3.83474e-05
4.54998e-06
-3.07261e-05
-6.31756e-05
6.1905e-06
-5.68886e-05
0.000120349
-0.000117729
-6.80868e-05
1.0187e-05
-1.02158e-05
2.82159e-05
-1.96017e-05
-6.25569e-06
3.5075e-05
9.93162e-06
-5.96483e-05
5.40572e-05
-2.97574e-05
-7.2585e-07
-9.39006e-06
-2.64805e-05
5.89004e-05
9.35846e-05
7.95011e-05
-1.68915e-05
-6.82935e-05
-7.7704e-05
4.75618e-05
-1.31747e-06
1.1744e-05
5.16311e-05
-6.31507e-05
2.21427e-05
3.45726e-05
-3.89619e-05
4.92731e-05
9.85363e-06
-2.73691e-05
-7.18011e-05
-2.20747e-06
9.41218e-06
5.68596e-05
-2.01403e-05
-8.6223e-06
7.08969e-06
9.57283e-07
-2.91981e-05
-3.67718e-05
9.87202e-07
-7.08306e-06
-7.77073e-05
4.07125e-05
2.28041e-05
-2.3353e-05
-2.82733e-05
6.35604e-06
-3.10616e-05
-2.37785e-05
5.87653e-05
3.77754e-05
-8.88545e-05
1.88743e-05
2.82156e-05
2.42071e-05
-1.97263e-05
3.13724e-05
2.67725e-05
-2.7891e-05
-1.14412e-05
4.39791e-05
-1.84724e-05
6.2898e-06
-9.41637e-06
3.67083e-05
-1.65384e-05
-2.21907e-05
-3.26345e-05
2.11544e-05
-9.05287e-05
-2.25264e-05
7.17852e-06
-1.67803e-05
-5.12949e-05
-4.15263e-05
3.02584e-05
1.87581e-05
1.34518e-05
6.79975e-05
0.000103678
-2.68702e-05
-5.62218e-05
-7.36816e-06
-8.72894e-06
-8.22137e-06
-0.000119191
3.07667e-05
9.97072e-05
7.9355e-05
2.35237e-05
2.8956e-06
3.23562e-05
6.61903e-06
-1.27412e-05
-1.12366e-05
3.50201e-06
6.08941e-05
-6.73486e-06
5.99329e-05
-9.10775e-06
-4.93443e-05
-1.25016e-05
-1.79214e-05
3.41781e-05
-3.37978e-05
7.39482e-06
5.9453e-05
0.000102923
1.58972e-05
2.07406e-06
6.60839e-05
-5.4952e-05
-6.42209e-05
4.83601e-06
5.86055e-05
-3.53619e-05
-0.000113618
-3.21863e-05
8.25291e-06
3.03723e-05
4.09526e-06
1.25887e-05
-2.57907e-05
4.02983e-06
-1.99417e-05
-0.000115459
-8.30321e-06
2.34321e-05
1.67678e-05
-9.89926e-06
-1.77944e-05
3.41064e-05
5.38381e-05
-8.89646e-07
-3.26862e-05
-1.4483e-05
1.08392e-05
2.86299e-05
1.41957e-05
-1.13223e-05
4.36333e-05
-9.70066e-06
4.36598e-05
-6.25988e-06
-6.49594e-05
8.33401e-05
7.37351e-06
-2.33592e-05
-5.29963e-05
8.21869e-06
-7.6708e-05
-5.47343e-05
1.69986e-05
-2.3528e-05
6.93039e-05
-5.89244e-05
-1.58964e-05
-3.79723e-06
-4.36552e-05
1.74984e-06
6.90902e-06
-1.5634e-05
-1.26818e-05
-6.31297e-06
-2.87471e-05
6.35843e-05
-1.27363e-05
2.98873e-05
-1.94591e-05
0.00010666
-6.8732e-05
2.64251e-06
7.97831e-05
-7.28986e-05
-2.11627e-05
-1.82912e-06
-5.65499e-06
-3.07194e-05
-1.6659e-07
6.13095e-05
-4.53604e-05
-3.93705e-06
2.74229e-05
5.10013e-05
6.30168e-06
2.15239e-05
-5.93152e-05
-4.52388e-05
-4.56915e-05
-4.39743e-05
-2.38916e-05
-5.03424e-05
-2.24272e-05
-6.28914e-05
1.11943e-05
0.000117078
1.08843e-05
1.60316e-06
7.11565e-06
-1.24832e-05
-9.79605e-05
1.17277e-05
-2.43356e-05
-6.52872e-05
-4.57338e-05
9.77498e-05
-2.84512e-05
2.46856e-05
2.89713e-05
-3.39509e-05
9.19256e-05
-5.0638e-05
-3.14e-05
4.18047e-07
2.26257e-05
5.23947e-05
-4.63516e-05
3.01935e-06
-7.25875e-05
3.62427e-05
4.53797e-05
5.10276e-05
4.96123e-05
1.14616e-05
6.31483e-06
1.38575e-05
1.4148e-06
1.35627e-05
-5.94303e-05
-5.26094e-05
-3.14449e-05
3.6899e-05
-1.13063e-06
4.39375e-06
1.65974e-05
1.01096e-05
-4.56737e-05
-5.67071e-05
-2.16056e-05
3.75323e-06
3.021e-05
2.47178e-05
-3.70548e-05
-4.68161e-05
-8.03268e-05
-3.89203e-05
8.46456e-05
4.35197e-05
1.98982e-05
-8.17643e-06
-6.95745e-06
-5.38758e-05
3.58438e-05
-6.18512e-05
7.90427e-05
-1.59479e-05
-3.99174e-05
-6.26171e-05
3.51215e-05
5.15339e-05
1.97091e-06
-3.47081e-06
-9.94944e-06
5.45724e-05
-4.35943e-05
-3.2003e-05
3.58508e-05
-2.33706e-05
-7.19354e-06
3.16278e-05
-2.36785e-05
4.79089e-05
6.11601e-05
-1.50187e-05
5.83363e-05
-1.60106e-05
-5.55504e-05
-4.11181e-05
3.92948e-05
8.73668e-05
-9.01811e-06
2.39067e-05
5.3123e-05
-2.11771e-06
3.75926e-05
-6.11141e-05
-5.37824e-05
4.75652e-05
-2.97427e-05
-7.41598e-05
-1.3014e-05
3.82878e-06
-4.95904e-05
-1.00627e-05
1.48059e-05
3.36766e-06
-4.77561e-05
-3.26617e-05
4.77931e-06
4.40959e-05
4.04308e-05
-4.65774e-05
-4.65793e-05
9.95409e-06
6.581e-05
1.77753e-05
-1.76015e-05
-0.000102062
4.74703e-05
-2.0166e-05
-7.77608e-06
-8.79914e-06
4.50331e-05
-5.59213e-06
-5.70056e-05
-1.93109e-05
-3.39664e-05
4.75906e-05
2.16513e-05
-2.22095e-05
-2.47783e-05
-2.54151e-05
-5.89073e-06
-1.15655e-05
-4.13187e-05
-4.02358e-05
1.20548e-06
-4.48257e-05
2.0425e-05
3.38082e-06
-2.82914e-05
3.01644e-05
9.34792e-06
-6.71297e-05
-4.0574e-05
7.0934e-05
-3.39546e-05
-2.67515e-05
2.17739e-05
1.56355e-05
1.44395e-05
-8.90158e-06
-1.19942e-05
1.44325e-05
8.70283e-05
-9.69856e-07
1.24234e-05
-5.59272e-05
-1.92779e-05
3.9081e-05
3.06987e-06
-4.055e-05
7.56641e-06
6.72846e-05
3.9499e-05
-7.47535e-05
-3.48639e-05
2.46889e-05
-5.16149e-05
3.7672e-06
-4.08547e-05
-1.83188e-05
8.32828e-05
-3.53499e-05
-3.56362e-05
-9.10251e-06
-2.37039e-05
-7.61582e-05
-4.31732e-05
-3.4452e-05
3.0332e-05
-5.93209e-05
-4.43422e-05
-1.38485e-05
2.80141e-05
4.43447e-05
7.11251e-06
-4.18979e-07
-3.37954e-05
5.6318e-05
4.62113e-05
-7.51624e-05
0.000106831
-4.85465e-05
-1.38168e-05
-8.41334e-07
-1.47617e-05
-6.57006e-05
-1.55212e-05