# vtk DataFile Version 1.0
Net Charge Density
ASCII
DATASET STRUCTURED_POINTS
DIMENSIONS 256 128 1
ORIGIN 0 0 0
SPACING 0.15625 0.15625 1
POINT_DATA 32768
SCALARS rhonet float
LOOKUP_TABLE default
-3.8963e-06
-9.5128e-05
0.000144792
9.63223e-05
3.56839e-05
0.000120451
-0.000118445
9.18577e-05
0.000154217
2.28996e-05
-3.75602e-05
0.000108726
0.00010382
7.94455e-05
0.000109346
4.99608e-05
8.77434e-05
0.000140236
4.05881e-05
-6.79099e-05
-6.4068e-06
0.00014186
0.000144767
4.7783e-05
3.72675e-05
2.07428e-05
7.74211e-05
9.05888e-05
-1.35219e-05
-7.27425e-05
5.23025e-05
3.97242e-05
4.36684e-05
6.90082e-05
1.24418e-05
0.000171713
1.68069e-05
7.28726e-05
7.73582e-05
-5.53066e-06
2.29317e-05
6.83172e-06
0.000136404
9.39809e-05
2.09388e-05
1.86827e-05
-3.16137e-05
6.95542e-05
0.000116213
7.88727e-05
-1.20075e-05
2.49783e-05
8.34434e-05
0.000148996
3.55951e-05
1.75046e-05
0.000151011
-5.1747e-05
5.67839e-06
7.16955e-05
5.028e-05
6.06021e-05
7.16792e-06
8.01797e-05
8.22488e-05
-8.0383e-05
4.41821e-05
0.000136175
4.09959e-05
4.82833e-05
7.92338e-05
3.6711e-05
-2.69163e-05
4.96674e-05
-1.14669e-07
5.11551e-05
4.20866e-05
-3.83081e-05
9.21618e-05
0.000106615
8.71844e-05
2.54081e-05
7.49617e-05
0.000101106
4.5469e-05
-4.48001e-06
-1.66916e-05
6.70485e-05
0.000119669
-2.3488e-05
9.00023e-05
-1.47956e-05
-3.90529e-05
-6.21483e-06
-8.99176e-05
5.22713e-05
0.000157961
2.4098e-05
9.16887e-05
-2.49448e-05
0.000157723
9.09189e-05
-3.16952e-06
9.47253e-05
3.90385e-05
0.000130971
-2.58558e-07
-6.8549e-05
2.66277e-06
7.39996e-05
0.00013342
5.7928e-05
2.02989e-05
3.31154e-05
8.04211e-05
4.36595e-05
1.22655e-05
7.49696e-05
5.096e-05
4.32278e-05
-3.98803e-05
-3.45634e-05
4.04443e-05
2.44901e-05
0.000115721
6.60868e-05
1.82547e-05
8.13092e-05
1.99642e-05
-1.88098e-05
0.000119796
9.26163e-05
-2.24449e-06
3.77491e-05
2.03241e-05
6.79726e-06
4.46094e-05
-3.19162e-05
4.68965e-05
-1.15028e-05
-4.98414e-05
2.32959e-05
2.0962e-05
0.00016076
9.88232e-05
2.06381e-06
0.000137836
1.15244e-05
-3.11239e-05
0.000132418
1.7827e-05
2.91313e-05
0.000108427
-8.34523e-06
3.45046e-05
4.32306e-05
5.74649e-06
3.42714e-05
-5.27687e-06
1.75425e-05
7.67779e-05
2.50083e-05
0.00011271
-2.20693e-05
3.25853e-05
2.55235e-05
5.84617e-05
-6.12719e-05
0.000105448
0.000137296
2.50287e-05
4.32235e-05
7.45822e-05
0.000111579
-2.02681e-05
-8.13417e-06
8.72931e-05
-8.23219e-05
1.15581e-05
3.31812e-05
8.87692e-05
-7.05996e-05
-3.18111e-05
5.65394e-06
1.04983e-05
7.9854e-05
4.142e-05
7.20925e-05
0.000102554
7.46853e-05
2.48839e-05
0.000198125
8.16128e-05
-6.56993e-05
6.24199e-05
0.000201229
4.75221e-05
8.32751e-05
7.8667e-05
-1.63092e-05
5.95993e-05
0.000149169
4.39013e-05
3.83358e-05
-1.0075e-05
6.97711e-05
-5.98882e-05
5.34231e-05
6.86805e-05
8.57901e-05
6.81019e-05
0.000137439
0.000106097
-2.40522e-05
0.000111081
-0.00013128
0.000102691
9.90948e-05
-5.28728e-05
-3.79204e-05
8.69744e-05
0.000114877
0.000176992
3.40528e-05
7.95295e-05
5.67453e-05
-3.69129e-05
-1.51405e-05
8.69035e-05
6.8607e-05
6.22834e-06
4.16544e-05
2.36372e-05
2.60695e-05
0.000121308
-3.557e-05
-2.05776e-05
2.75015e-05
5.94513e-05
8.97993e-06
1.84986e-05
8.66943e-05
-5.8267e-05
-3.06987e-07
2.659e-05
-1.44094e-05
-2.21961e-05
-3.95463e-05
0.000128655
-4.29573e-06
2.10484e-05
-3.8513e-05
0.000102293
2.14383e-05
2.4053e-05
4.18614e-05
-0.000104899
2.47047e-05
-6.30291e-05
-2.51196e-05
-2.38869e-05
5.12259e-05
-2.60447e-05
-7.57634e-05
4.98927e-05
-6.60464e-05
-4.28997e-05
2.33417e-05
-5.99085e-05
-8.02729e-05
3.00258e-06
-4.24264e-05
4.66174e-06
1.08912e-05
-2.15756e-05
-4.06057e-06
-5.82073e-05
-6.74939e-05
-0.000106137
-1.79204e-05
-2.0046e-05
-5.72717e-05
-2.52759e-05
7.73068e-06
-3.0741e-05
-8.53867e-05
-3.53884e-05
-8.36165e-06
2.74426e-05
-7.95682e-05
-6.67481e-05
2.31339e-05
-0.000103179
-3.37886e-05
1.98341e-05
-8.20336e-05
-5.15865e-05
-4.38413e-05
8.67248e-06
3.55997e-05
-2.47119e-05
4.87384e-06
-0.000112384
-3.15169e-05
3.88797e-05
-3.39411e-05
-6.56128e-05
-4.11925e-05
-3.17378e-05
2.98233e-05
-2.85327e-05
-3.54567e-05
-2.34866e-05
-0.00011611
1.48106e-05
-3.37928e-05
4.56305e-05
-5.12693e-05
-5.72848e-05
-3.73463e-05
-3.01476e-05
-6.05659e-05
-1.003e-05
-7.96341e-05
-0.000109192
1.21043e-05
-4.39814e-05
9.0173e-06
-1.84358e-05
1.72412e-05
-5.13536e-05
-1.0434e-05
4.76092e-05
-2.54943e-05
5.74094e-05
2.16532e-07
-3.24128e-05
-5.04456e-05
-8.22563e-05
2.84829e-05
2.44665e-05
-6.16949e-05
-0.000158638
-4.1698e-05
-6.54254e-08
-1.69134e-05
8.77352e-06
5.33124e-05
3.15625e-06
-1.07943e-05
2.47151e-05
-5.96547e-06
3.43235e-05
-2.7311e-05
-6.84685e-06
-1.89524e-06
-4.36441e-05
-0.000106617
-3.96515e-05
-2.96772e-05
-3.55598e-05
1.64219e-05
-5.91237e-05
-4.27187e-05
-1.06706e-06
-6.00086e-06
5.43521e-05
-3.54237e-05
-7.13791e-05
-7.13189e-05
4.01704e-05
1.15485e-05
-5.23514e-05
-1.11542e-05
9.64582e-06
3.18988e-05
-8.57753e-05
1.3961e-05
-6.13793e-05
-7.74115e-06
-3.48623e-05
-1.67096e-05
-4.55657e-05
-6.96029e-05
1.70247e-05
-4.88103e-05
-2.07967e-05
1.59821e-05
-1.05534e-05
-2.35452e-05
-1.24415e-05
-3.3105e-05
-4.60115e-05
-1.33583e-05
-4.22455e-05
-8.32253e-06
-5.9447e-05
-7.82586e-05
8.69692e-06
-2.01934e-06
-8.38246e-05
1.05491e-05
-3.22349e-05
-4.36764e-05
-0.000117681
-8.72533e-06
-3.9957e-05
-3.83074e-05
-7.16749e-05
9.3705e-06
3.00054e-05
-1.70409e-05
-2.39988e-05
-1.85601e-06
-5.11225e-05
-2.02553e-05
-8.1348e-05
-6.4095e-05
3.62428e-05
-8.02705e-05
-7.56292e-06
2.37452e-05
2.21165e-05
-5.27818e-05
-2.4254e-06
3.60706e-05
-9.46558e-05
1.02373e-05
-2.21481e-05
3.97032e-05
-4.13508e-05
-2.5548e-05
-5.70039e-06
3.04059e-05
-6.90706e-05
-4.77679e-05
3.67503e-05
-4.79701e-06
2.05904e-06
-4.86565e-05
-0.000107548
-6.60243e-05
-2.6601e-05
-2.24796e-05
-9.32999e-06
-1.88574e-05
-0.000101449
6.32217e-06
3.6959e-05
4.6104e-06
-1.08493e-05
-2.3654e-05
-8.50841e-05
-3.90909e-05
4.81106e-05
-6.97724e-06
-7.51885e-05
-6.46277e-05
-4.37902e-05
3.07554e-05
-5.53518e-05
1.83098e-06
-5.12166e-05
9.71667e-05
1.17969e-05
-4.14073e-05
-5.22411e-05
-4.84004e-05
-4.73997e-05
3.21254e-05
-3.5083e-05
-7.29871e-05
1.6978e-06
-2.53873e-05
-1.98885e-05
4.50632e-06
-1.732e-05
7.05679e-05
5.70893e-05
-6.70658e-05
-3.48982e-05
-2.73384e-05
-7.02045e-05
-2.0606e-05
2.42676e-05
8.58866e-05
-8.70344e-05
6.93474e-06
-4.34539e-05
-3.62699e-05
6.90325e-05
3.75876e-05
-6.27586e-05
-4.99177e-06
2.55415e-05
-5.11212e-05
2.26249e-05
-1.34835e-05
-4.80212e-05
-1.98234e-05
3.05532e-06
3.73241e-05
3.42675e-05
-1.23486e-05
-2.31678e-05
-0.000132199
-1.6659e-07
-7.60646e-06
5.12582e-05
-7.35314e-06
-7.3632e-05
5.01599e-06
-3.30424e-05
-1.99093e-06
5.00259e-05
-7.7968e-06
-2.33897e-05
-8.48086e-06
1.05402e-06
-1.92295e-05
7.13236e-05
-5.15233e-05
7.82241e-06
3.11628e-05
6.5344e-05
-4.679e-05
-2.9064e-05
-1.14908e-05
-2.49571e-05
-9.34291e-05
-2.04819e-05
3.51596e-05
4.88624e-05
3.64082e-05
-1.64524e-05
3.77706e-05
6.14584e-05
-4.75245e-05
4.48456e-05
4.40085e-05
9.82231e-06
-5.1087e-05
1.23072e-05
2.34435e-05
7.04307e-05
4.96681e-05
-3.57146e-05
2.25293e-05
5.27385e-06
-2.51166e-05
4.80091e-05
3.40397e-05
2.11624e-05
-2.89199e-05
-7.34256e-05
2.16751e-05
3.48728e-05
1.4212e-06
-4.63355e-05
1.81713e-06
-1.65709e-05
5.22444e-05
1.92714e-05
-4.25107e-05
-9.05949e-05
6.88457e-06
2.94284e-05
9.43325e-06
3.90762e-05
-4.0176e-05
2.7977e-05
-3.30706e-05
9.02758e-05
1.87053e-05
2.19354e-05
-2.38946e-05
3.89215e-05
7.95063e-05
-1.4304e-06
-1.07865e-05
-4.3123e-05
-5.63429e-05
3.65558e-05
5.69155e-06
-2.97662e-05
3.18501e-05
-3.75105e-05
-1.97687e-05
6.36961e-05
5.06416e-05
-4.8059e-05
-4.18768e-05
-9.31229e-06
-2.63562e-05
-1.33661e-05
5.0945e-05
7.41074e-05
-1.38805e-05
-5.52135e-05
-6.02395e-05
2.25473e-05
4.01646e-05
-3.56471e-05
4.60854e-05
6.04031e-05
1.00421e-05
-2.72852e-05
-6.84027e-05
1.03838e-05
-3.9067e-05
-6.67315e-05
1.89329e-05
-3.86648e-05
-7.26089e-05
1.55346e-05
3.44657e-05
-9.18168e-06
-2.52384e-05
3.4999e-05
6.71942e-05
-7.81449e-06
-2.34848e-05
1.90868e-05
-3.4557e-05
-3.24682e-06
3.17619e-05
-4.33619e-05
-4.44568e-05
-1.29159e-05
6.19069e-05
-1.54723e-05
-1.92425e-05
-9.33767e-07
1.07802e-05
-2.67869e-05
6.43285e-05
6.28992e-07
3.1611e-05
-3.4544e-05
-2.02106e-05
3.29815e-05
-8.92975e-06
-5.33778e-05
-6.5838e-05
-1.97738e-05
2.3836e-06
3.65474e-05
8.36793e-06
-1.87731e-06
1.48284e-05
-2.75734e-05
4.2477e-05
2.79531e-05
9.69102e-05
6.65832e-05
1.9427e-05
1.45667e-05
-1.36639e-05
5.90174e-05
5.77688e-05
-3.53312e-05
8.65558e-05
-1.88485e-05
-2.10218e-05
-5.39364e-05
1.12338e-05
-1.22986e-05
7.03166e-05
-1.07868e-05
6.14859e-06
5.77937e-05
3.47523e-05
-3.56395e-05
-5.85581e-06
4.38265e-05
2.99949e-05
1.48882e-05
3.09432e-06
-6.2997e-05
1.44145e-05
-9.3447e-05
4.10881e-05
-3.34161e-05
-7.29724e-05
6.78643e-06
-4.31382e-05
3.26065e-05
-5.40697e-05
-3.51883e-05
-7.38108e-06
-3.46794e-05
7.78132e-06
5.28593e-05
1.66995e-05
-1.61584e-06
7.61894e-05
-2.89606e-06
5.27897e-05
3.30993e-05
2.69061e-05
3.20121e-05
-4.14015e-05
-7.91212e-05
6.70401e-06
-3.7106e-05
3.38652e-07
3.12875e-05
2.55898e-05
4.6243e-05
-7.34488e-06
3.85575e-05
-1.82485e-05
8.60395e-05
-3.51768e-05
-2.4211e-05
-2.44785e-05
3.96877e-05
3.96359e-05
-5.59574e-06
-1.5982e-05
5.26488e-05
-3.12828e-05
-9.51241e-06
1.32088e-05
3.0308e-05
4.0144e-05
-6.21303e-05
6.55744e-06
-4.02799e-05
7.68161e-05
-2.30568e-05
2.42714e-06
-2.36239e-05
-7.6571e-06
1.05612e-06
-7.58459e-05
1.89047e-05
4.24926e-05
2.73378e-06
-4.68805e-05
-0.000111356
2.32975e-05
1.92821e-05
1.66928e-06
4.11418e-05
-1.26266e-05
3.11481e-06
-2.15393e-05
-7.41901e-05
3.57797e-05
1.81664e-05
-4.43207e-05
1.38062e-05
2.4942e-05
-1.40071e-05
-5.45261e-05
-1.59672e-05
4.84829e-05
-4.49957e-06
-0.000139603
5.79737e-05
3.08063e-05
0.000100899
-3.72751e-05
3.82718e-05
1.96723e-05
-2.19457e-05
-3.1699e-05
-3.1502e-05
5.79787e-05
8.84747e-05
-9.06736e-06
-5.99885e-05
9.21846e-06
8.46339e-06
-1.80444e-08
-2.07849e-05
-3.90378e-05
0.000130274
-3.43217e-05
-4.7052e-05
5.37111e-05
-2.79653e-06
2.82261e-06
-3.79191e-05
-6.05413e-05
4.7543e-05
4.84355e-05
-1.75367e-05
3.74634e-05
-5.19101e-05
4.18179e-05
3.39499e-05
-6.99733e-05
2.73664e-05
3.88052e-05
1.67806e-05
-5.26782e-05
6.28689e-05
-2.19621e-05
-4.31017e-05
-7.4032e-06
-2.66791e-05
4.25463e-05
3.64962e-06
2.7573e-05
-4.73876e-05
-6.43719e-06
3.03098e-05
-2.263e-05
-8.1934e-05
-4.9582e-05
1.36234e-05
3.36369e-05
4.53519e-05
-3.78174e-05
6.72055e-05
-2.02064e-05
-6.23039e-05
4.74696e-05
4.6276e-05
1.24053e-05
3.82877e-05
2.15028e-05
5.87145e-05
-6.49994e-05
-4.25662e-05
-1.34128e-05
4.39053e-05
4.78704e-05
-2.23203e-05
-6.05172e-05
1.98232e-06
-2.43774e-06
-3.00118e-05
1.48925e-05
2.92043e-05
7.28871e-05
7.06632e-05
-3.58255e-05
-0.000140627
2.58463e-05
1.2028e-06
-2.88259e-05
-4.69703e-05
5.72433e-05
3.1258e-05
1.75564e-05
-0.000107816
-1.5847e-05
1.13324e-05
3.99513e-05
3.28142e-05
-4.30103e-05
3.2037e-05
3.74884e-05
-3.91933e-05
2.83309e-05
3.71952e-05
-1.37137e-05
3.56368e-05
-5.44158e-05
8.30443e-05
3.03241e-05
-1.94272e-05
-2.67298e-05
6.8428e-05
4.12184e-05
-2.91595e-05
3.35346e-05
3.92138e-05
3.68371e-05
-3.48373e-05
-2.81517e-05
1.4167e-05
3.52948e-05
-7.15666e-05
-2.16156e-05
4.60051e-05
3.6499e-05
2.31861e-05
-3.12363e-05
-7.13486e-05
2.25478e-05
-3.52722e-05
7.69855e-05
-4.16434e-05
-1.3786e-05
7.45144e-05
-5.40668e-05
4.0041e-06
-1.77862e-05
-5.5805e-05
2.01232e-05
5.96046e-06
5.05821e-05
6.3116e-05
-6.58258e-05
8.14183e-05
-4.32243e-05
-2.44336e-05
2.67199e-05
4.39433e-06
9.56771e-06
7.6557e-06
4.39107e-06
-4.22162e-05
2.17025e-05
1.0127e-05
-1.56349e-05
-7.88143e-05
-2.79716e-05
-7.33184e-06
2.62824e-05
6.22799e-06
2.384e-05
-8.04022e-06
5.26161e-05
3.00958e-05
-3.07953e-05
-8.68586e-05
1.14741e-05
3.87328e-05
1.11606e-05
-2.85616e-05
-9.1258e-06
-2.48174e-06
2.21191e-05
-3.22959e-06
2.5344e-05
2.25471e-05
3.20963e-05
-2.0874e-05
-3.06335e-06
6.05546e-06
-3.41365e-06
3.49663e-05
-2.4487e-05
5.3474e-05
1.96629e-05
1.27875e-05
-1.15696e-05
2.92534e-05
2.87057e-06
3.39582e-05
-1.87155e-05
-2.88617e-06
-6.90413e-05
2.46689e-05
-5.03915e-06
-1.26841e-05
2.05983e-05
-2.63399e-05
-2.66044e-06
-3.02467e-05
-7.38936e-05
-1.16548e-05
0.000124287
-9.67177e-05
2.30566e-05
4.08882e-05
1.12086e-05
1.89696e-05
2.29753e-05
-6.50402e-05
-1.85571e-05
-3.58932e-05
9.88832e-06
-2.25088e-05
-0.00011462
5.06443e-05
-0.000120174
-5.21555e-05
0.000129995
-2.85539e-05
-3.29309e-05
1.39808e-05
-3.08815e-06
-4.58467e-06
-6.87176e-05
5.01401e-07
2.54066e-05
-3.06808e-05
-4.83702e-05
-2.0984e-05
3.77465e-05
3.99078e-05
1.09905e-05
-3.37756e-05
2.43074e-05
4.91925e-05
4.58604e-05
-7.13922e-05
-6.57424e-05
-4.48682e-05
5.1466e-05
2.45112e-06
-1.54716e-06
-6.9671e-05
3.41679e-07
-1.04241e-05
6.89388e-06
-2.29042e-05
-2.3559e-06
-3.06213e-05
3.27413e-05
-3.22657e-06
-1.03373e-05
-2.52561e-05
2.84619e-05
9.52228e-05
-3.02617e-05
3.21713e-05
4.43815e-05
-4.5409e-05
-0.000101101
-3.30774e-05
0.00011101
6.25446e-05
-5.28283e-05
-0.000107185
-1.18128e-05
6.85664e-05
3.46117e-05
-5.40469e-05
-5.21376e-05
4.75182e-05
-4.06373e-05
-0.000119435
6.12035e-05
-1.81566e-05
-3.11724e-05
0.000105493
-4.54728e-05
-9.29438e-05
-5.38455e-05
9.50543e-06
-5.54984e-05
1.67225e-05
4.28176e-06
-7.23698e-05
6.52461e-06
4.59249e-05
6.77723e-06
-2.06707e-06
5.32221e-05
2.83385e-05
-3.75984e-05
-4.85508e-05
0.000104193
-1.62804e-05
-5.7274e-06
-2.96989e-05
-2.67243e-06
-4.58122e-05
8.22789e-06
-1.31107e-05
-4.38881e-05
-3.36714e-05
-5.49536e-05
4.80608e-05
-3.43897e-05
5.50933e-05
-3.26772e-05
-2.49946e-05
-9.60939e-06
3.26964e-05
-4.34387e-05
8.21742e-05
3.99048e-06
1.01082e-05
-2.64168e-05
-1.68476e-06
5.18316e-05
-5.05231e-05
7.65338e-05
-2.69968e-05
-2.84484e-05
5.25312e-06
1.91292e-05
5.75264e-05
-1.5507e-05
1.41484e-05
1.54793e-05
9.67539e-05
-2.60586e-05
2.79746e-06
-6.86486e-05
-4.36429e-06
5.35522e-06
-6.22822e-07
-1.12272e-05
2.7612e-05
-7.06454e-05
2.38867e-05
3.64641e-05
-5.86081e-06
-1.47326e-05
5.85362e-05
-1.46322e-06
5.05592e-07
-8.36409e-06
-6.68818e-05
-7.45873e-06
-5.66774e-05
5.4914e-05
-1.5568e-05
-6.51168e-05
1.93976e-05
-2.5009e-05
1.49551e-05
4.44492e-05
-8.879e-06
-5.64915e-05
-7.07048e-05
-8.34116e-06
-2.96301e-05
-2.15252e-06
-1.8321e-05
-1.89303e-06
-0.000102778
8.74791e-06
3.24821e-05
3.07962e-05
-0.000103662
-3.6156e-05
2.0243e-05
8.39116e-05
4.75312e-06
-1.31456e-05
3.19697e-05
7.1479e-07
-3.7137e-05
-7.51377e-05
-6.92119e-05
-2.21259e-06
-7.097e-05
1.36683e-06
-4.37512e-05
5.21003e-05
-3.20334e-05
-2.11225e-05
9.38238e-06
-1.06019e-06
4.85114e-06
-2.59297e-05
5.72978e-05
-2.03837e-05
4.02206e-05
1.71226e-05
-4.36113e-05
4.79119e-06
-4.09905e-05
-3.49013e-07
2.30944e-05
-3.31621e-05
1.34477e-05
1.23593e-05
-2.61037e-05
-4.63813e-05
1.17683e-05
-4.40204e-05
0.000100773
4.16166e-05
5.95755e-05
5.72647e-06
3.63577e-06
3.72172e-05
-2.8386e-05
-2.65321e-05
-3.87032e-05
-3.32443e-05
-2.94438e-06
-4.8338e-06
-7.42379e-05
-9.21186e-05
-4.12924e-05
9.36035e-05
1.79685e-05
2.46144e-05
5.07898e-05
-3.90919e-05
-4.86935e-05
-6.07776e-05
2.91875e-05
-7.01525e-05
2.39777e-05
5.71003e-05
1.43811e-05
-8.54443e-05
6.48921e-05
5.64067e-06
1.15008e-05
-0.000120717
5.33734e-05
7.36081e-05
5.39166e-06
1.3874e-05
1.18412e-05
-9.65106e-06
3.66954e-05
-3.03437e-05
4.71816e-05
6.17247e-05
-4.68048e-06
-4.04328e-05
-2.98403e-05
4.83403e-06
-1.19186e-06
4.36943e-05
-1.84891e-06
-1.1377e-05
-1.70621e-05
7.82479e-05
-4.58397e-06
1.79142e-05
-3.62858e-05
-7.7863e-05
7.38348e-05
-9.19302e-05
-5.20819e-06
2.09279e-05
2.30595e-06
7.05891e-05
3.83813e-05
7.42113e-06
5.50139e-05
-1.01447e-05
4.60942e-05
-1.68378e-05
-5.88757e-05
-4.91892e-05
5.14218e-05
5.45877e-05
-1.98532e-05
5.81003e-05
3.02007e-05
1.38805e-05
2.24957e-05
6.25558e-05
6.90203e-06
-8.80086e-05
-1.34255e-05
-5.00807e-06
4.86996e-05
5.99246e-05
6.30913e-05
1.42679e-06
2.14425e-05
-2.66378e-05
-9.9038e-06
-6.22048e-05
-1.60282e-05
3.25948e-05
-3.85363e-05
-1.90404e-05
5.31537e-05
-2.28167e-05
1.54098e-05
-4.23559e-05
-5.64964e-07
-5.11484e-05
-1.0791e-05
-0.000114606
2.0634e-05
1.91693e-05
7.28541e-05
2.73272e-05
-4.94905e-05
5.05776e-05
5.27872e-05
6.41993e-05
-7.99005e-06
4.43966e-05
-4.86518e-05
-2.58863e-05
-3.12885e-05
9.76643e-05
-4.46021e-05
-4.87095e-05
2.70451e-05
-5.04586e-05
1.36551e-05
-9.01837e-05
-0.000131356
6.04801e-05
5.67492e-05
-1.70091e-05
2.47736e-05
-9.10857e-06
5.167e-05
-8.06582e-05
3.82906e-05
3.78339e-05
1.59069e-05
-7.97655e-06
-6.65523e-06
3.57423e-05
3.13778e-05
-9.32617e-05
-4.72956e-05
-9.38068e-05
-4.97694e-05
6.8475e-05
-3.54389e-05
9.14524e-06
-3.66231e-05
3.87211e-05
1.69346e-05
4.47612e-05
-5.40491e-05
2.94937e-05
6.61321e-05
1.22408e-05
-6.64291e-05
1.13412e-06
1.48169e-05
-1.36939e-05
6.08941e-05
-9.08505e-07
7.89309e-05
9.09693e-06
5.26163e-05
-9.66368e-05
3.41136e-05
6.60541e-06
-1.27822e-05
-4.43461e-05
-2.06709e-05
3.15043e-06
-9.3109e-07
-6.3061e-05
-0.000100798
-4.15868e-05
-9.15083e-05
-4.81864e-05
5.62923e-05
-1.52455e-05
-5.22903e-05
-2.41193e-05
-1.08295e-05
-4.57689e-05
-4.23092e-05
1.19053e-05
2.8361e-05
-1.41368e-05
-5.28243e-05
-6.13483e-05
1.77324e-05
1.07323e-05
-2.08274e-05
5.96299e-05
1.79117e-06
2.51195e-05
-2.36358e-05
5.88672e-05
3.18949e-05
4.76113e-05
-7.31887e-05
7.22463e-05
-0.000100922
-6.24079e-06
6.49313e-05
8.48947e-06
3.23065e-05
-3.30678e-06
-4.32198e-05
2.37767e-06
1.99969e-05
-1.27284e-05
9.59367e-06
3.61396e-05
2.75427e-05
6.9214e-05
-2.72365e-06
-6.32239e-05
-6.14556e-06
-7.61065e-06
-1.02106e-05
4.45029e-05
5.20097e-06
2.67304e-05
-6.63055e-06
-4.79864e-06
-2.94806e-05
1.43549e-05
5.68933e-06
6.79194e-05
9.01194e-06
3.43912e-05
1.84252e-05
1.29041e-05
-4.46523e-05
3.45935e-05
3.36542e-05
1.93773e-06
-1.88097e-05
4.46877e-05
-5.23891e-05
6.75365e-05
7.74647e-05
6.37106e-06
8.13846e-05
-3.18114e-05
2.2067e-05
-1.73557e-05
-2.87804e-05
-6.86573e-05
1.19241e-05
2.47916e-05
1.23699e-05
-3.48677e-05
2.16771e-05
-2.20747e-05
-3.52552e-06
1.23344e-05
1.71014e-06
2.97124e-05
-6.8857e-05
-1.33736e-05
9.18956e-05
-3.43515e-05
1.47279e-05
-1.23634e-05
4.94571e-05
2.4206e-05
-4.44688e-05
5.05937e-05
0.000106778
9.66932e-05
6.52515e-05
8.89995e-07
-7.20611e-06
-1.14564e-05
6.66903e-05
-5.44824e-06
4.01798e-05
-2.33974e-05
4.17561e-05
-3.41274e-05
-2.13981e-05
6.28107e-06
-2.62643e-05
3.58212e-05
-8.93148e-05
4.69466e-05
-3.57556e-05
3.30249e-05
2.3464e-05
-9.97116e-05
2.21337e-05
3.57018e-05
-1.87466e-05
2.13254e-05
-6.7824e-05
2.71618e-05
-5.16978e-05
5.68146e-05
4.88432e-05
-1.74802e-05
3.8041e-05
4.54169e-05
1.17873e-05
-8.37992e-06
2.07496e-05
-2.05645e-05
5.28262e-05
-7.57063e-05
-4.26266e-05
-7.67282e-06
2.04985e-05
-1.54356e-05
-3.12331e-05
1.17389e-05
6.2165e-05
4.88084e-05
4.33694e-06
-0.00012757
-5.02248e-05
-6.86673e-05
-6.60995e-05
3.09133e-05
7.61504e-05
-7.01352e-05
-7.03009e-06
9.28552e-06
4.82405e-05
3.83938e-06
8.47317e-06
-6.75762e-05
-1.85831e-05
1.21733e-05
-8.66875e-06
-3.19525e-05
-1.42837e-05
3.18361e-06
7.32997e-06
1.82409e-05
2.56519e-05
-6.78841e-05
-4.71401e-06
3.49287e-05
-5.05329e-05
1.07945e-05
-1.50143e-05
-1.63048e-05
-2.95396e-05
9.53886e-05
2.63904e-05
-1.76696e-05
-2.15017e-05
-1.27985e-05
8.03312e-06
-1.3581e-05
2.63909e-05
-7.18515e-06
-1.9085e-05
2.17281e-05
5.3932e-05
-9.03434e-05
5.79042e-05
-1.44776e-05
-1.46052e-05
-3.83228e-05
-4.54382e-05
2.61619e-05
5.74817e-05
2.07156e-05
1.80579e-05
2.61943e-05
-7.22182e-06
-2.65967e-05
2.38706e-05
-3.81793e-05
-3.29986e-05
2.86613e-05
4.19584e-06
5.34137e-05
-1.2902e-05
-4.54613e-06
9.10502e-05
1.63327e-05
1.69143e-05
-4.63275e-05
3.55737e-05
-3.91714e-05
2.2946e-05
1.72234e-05
3.08699e-06
6.80581e-05
6.72805e-05
-1.70231e-05
-7.54744e-06
4.55871e-05
-1.23875e-05
-6.61239e-06
0.000122597
3.26282e-05
1.82129e-05
2.4949e-05
-5.22533e-05
-2.22386e-05
-5.70168e-05
1.30478e-06
7.69086e-06
2.41779e-05
1.07712e-05
-5.20679e-05
1.767e-05
6.44937e-05
-6.11879e-05
5.44073e-05
-4.49317e-05
-7.05202e-05
6.23032e-06
3.27922e-05
4.70878e-05
1.3276e-06
1.32952e-05
-7.78596e-05
-2.81828e-05
-6.89202e-06
0.000112601
3.68481e-05
-3.34252e-05
4.85625e-05
3.18348e-05
1.14893e-05
6.94909e-05
0.000133271
-7.3859e-05
-4.20365e-05
-1.68964e-05
2.04114e-05
8.13161e-06
-1.95538e-05
3.47552e-05
5.05912e-05
-6.30396e-05
-4.22692e-05
1.79624e-05
5.70343e-05
-6.66478e-07
2.83981e-05
-3.47805e-05
-8.23163e-05
-3.16935e-05
-5.51018e-05
-1.69475e-05
6.43998e-05
-5.57769e-05
5.25208e-05
-0.00011234
-7.10652e-05
-1.52225e-05
-1.6027e-05
-3.59302e-05
5.28325e-05
4.40278e-05
-4.7551e-06
-6.05783e-05
-2.03254e-05
1.72127e-05
2.40916e-05
-2.15003e-05
-3.80282e-05
1.84206e-05
-5.22971e-05
-1.48042e-05
-9.04262e-05
-1.86136e-05
-1.40984e-05
0.000121307
-2.54703e-05
5.25209e-05
3.7947e-05
3.11935e-05
-3.85309e-05
-5.10295e-06
-4.49661e-05
2.62947e-05
1.12434e-05
-1.8606e-05
1.74425e-05
-3.7621e-05
8.71101e-06
-3.17962e-05
7.14655e-05
-7.47016e-05
0.000101809
5.19644e-05
3.18054e-05
1.9416e-05
4.63657e-05
-3.00526e-06
1.62392e-05
7.99989e-05
3.675e-06
-1.37988e-05
-5.21085e-05
-5.62189e-05
2.68226e-05
-3.78022e-05
-4.78238e-05
2.88633e-05
-2.68989e-05
-1.16555e-05
-5.02804e-05
3.10759e-05
-2.00593e-05
3.81094e-05
-8.71745e-05
-4.69054e-05
1.67193e-05
4.92436e-05
9.12743e-06
1.42516e-06
-6.69418e-05
-7.273e-05
-1.43615e-05
-9.74489e-06
-1.56981e-05
2.67379e-05
-9.21227e-05
-5.88641e-05
-1.2588e-05
5.10608e-05
-8.97485e-05
7.86013e-05
1.30894e-05
1.51683e-05
-0.000114672
-4.1971e-05
1.06478e-05
8.84157e-05
-6.75337e-06
-6.93114e-06
1.08086e-05
-9.1519e-05
-1.49589e-05
1.07785e-05
5.18085e-05
-3.28282e-05
4.25936e-05
9.43057e-06
7.85454e-07
4.03607e-05
-3.83484e-06
2.66724e-05
-2.21863e-05
6.11646e-07
2.16416e-06
1.83095e-05
-2.01631e-05
-7.52348e-05
-8.20158e-05
-4.0883e-05
3.06885e-05
3.11453e-05
-1.76032e-05
-1.14893e-05
3.87506e-05
9.27364e-06
1.17533e-05
-4.44882e-05
-5.27486e-05
-4.26529e-05
9.60719e-05
-3.91072e-05
-6.17559e-05
-4.51253e-05
4.71994e-06
-4.15783e-05
-1.74774e-06
2.57662e-05
4.81139e-05
-3.50764e-05
2.89147e-05
3.42641e-05
2.19489e-05
-2.03149e-05
-2.8429e-05
2.95845e-05
6.23245e-05
1.81483e-05
-1.7709e-05
-4.22893e-05
-3.51842e-06
6.32221e-05
3.54648e-06
7.63219e-06
-5.29364e-06
1.01697e-05
2.74986e-05
2.91369e-05
-2.60759e-05
-5.97397e-05
8.67876e-05
3.29318e-05
-1.45732e-05
-1.42368e-05
5.729e-05
3.84275e-06
9.81886e-05
0.000121367
-2.85939e-05
2.49983e-05
7.87119e-06
-1.86721e-05
-1.70155e-05
-7.32372e-05
0.00011208
-1.25971e-05
-6.01779e-05
7.86223e-06
3.08836e-05
9.78343e-06
7.84174e-06
1.71363e-05
4.79631e-08
-2.67229e-05
-2.5681e-05
-4.13363e-05
-4.55832e-05
-1.76243e-05
-7.76548e-06
-4.82698e-05
7.1398e-05
1.64241e-05
3.01731e-05
-3.19601e-05
1.39846e-05
-1.39403e-05
-1.55887e-05
4.47652e-06
-1.65855e-05
8.27654e-05
5.56017e-05
5.67234e-06
3.54116e-05
2.86195e-06
-1.63056e-05
2.07495e-05
9.63185e-06
-1.45016e-05
-4.88877e-05
-4.07483e-05
-9.69158e-06
4.12579e-05
-2.15801e-05
-3.41525e-05
5.64968e-05
-1.37317e-05
-5.04192e-05
3.84744e-05
-2.33627e-05
-1.19535e-06
-5.94476e-05
5.95325e-06
6.40082e-05
-7.39724e-05
-2.23713e-05
-4.28909e-06
-7.43165e-05
-1.58093e-05
5.60065e-05
-2.41017e-05
5.2014e-05
4.58729e-05
-3.16437e-05
0.000122278
2.89963e-05
1.20706e-05
-2.74086e-05
-3.44685e-05
-3.20195e-05
5.98456e-05
4.27903e-05
-2.54274e-05
-1.62859e-05
4.25263e-05
4.55981e-05
-7.0805e-05
-4.5384e-05
-1.75918e-05
6.00142e-05
3.70814e-05
4.3698e-05
-7.64511e-06
2.17552e-05
1.4844e-05
1.47813e-05
3.49529e-05
1.44988e-05
-7.17354e-05
5.90798e-05
3.9353e-05
-1.62125e-05
4.74525e-05
-1.84564e-05
-3.84233e-05
8.46093e-05
5.7899e-05
5.29935e-05
-2.82945e-05
-1.40262e-05
-3.38163e-06
6.5687e-05
1.70163e-05
1.81664e-05
-1.45178e-05
-3.22158e-05
8.30193e-06
5.70646e-05
3.72084e-05
6.89611e-05
3.92864e-05
3.07863e-05
-1.59354e-05
4.17498e-05
8.47259e-06
-3.21828e-05
-1.07551e-05
-1.45917e-05
5.39316e-05
1.21888e-05
2.11237e-05
-2.64742e-05
1.12987e-05
-2.39069e-05
-1.44509e-05
1.09979e-05
-7.73394e-06
4.69037e-06
1.68595e-05
6.67054e-05
1.57997e-05
-0.00010758
-8.24983e-05
6.52275e-06
-5.85073e-05
5.17322e-05
1.8487e-05
1.66775e-05
-7.07682e-05
5.68514e-06
-1.86223e-05
-4.33439e-05
5.83276e-05
-4.15361e-05
-7.76734e-05
-1.33206e-05
-3.74744e-05
-1.09966e-06
5.06311e-05
3.43443e-05
5.21396e-05
2.95314e-05
4.71442e-05
-2.02378e-05
0.000134813
5.51654e-05
-3.82715e-05
-1.12217e-05
0.000111733
1.12841e-06
-1.38339e-05
-2.07322e-05
-1.0534e-05
5.75092e-06
2.51085e-05
-6.47181e-05
1.22213e-06
0.00011825
2.02319e-05
-6.96785e-05
-8.3458e-05
9.06889e-05
4.29546e-05
-6.09939e-05
-2.33646e-06
4.52413e-06
-2.48621e-05
-7.4984e-05
-6.30156e-06
3.39788e-05
6.28859e-05
-2.65881e-06
-2.97538e-05
-6.67734e-05
-1.08315e-05
7.42264e-06
3.03176e-05
-1.26912e-05
1.26478e-05
-3.24748e-05
-1.54024e-05
4.65964e-05
-6.06989e-07
-7.33223e-05
-3.61166e-05
3.19351e-05
5.07114e-05
5.52046e-05
-3.86613e-05
-2.71022e-05
-1.73214e-06
4.0044e-05
-1.28826e-05
1.15235e-05
2.75393e-05
1.51002e-05
2.02364e-05
3.27812e-05
-0.000103584
-2.37201e-05
5.62997e-05
-3.5605e-05
-8.56414e-05
0.000101617
-2.90697e-05
2.15796e-05
-5.19513e-05
6.29318e-06
-5.9558e-05
3.80259e-06
-4.01156e-05
2.21791e-05
-9.73756e-06
6.35827e-05
-2.76128e-05
-2.54388e-05
9.06725e-05
-5.55888e-05
-3.51442e-05
1.47804e-05
-2.30942e-05
3.46843e-05
-4.10151e-05
-1.09317e-05
2.9841e-05
3.45644e-05
-4.78454e-05
-5.7874e-05
-3.72989e-05
3.58617e-05
-1.02362e-05
-1.76755e-05
3.83469e-05
4.54974e-06
-3.0726e-05
-6.31755e-05
6.19132e-06
-5.68882e-05
0.000120349
-0.000117728
-6.80868e-05
1.01868e-05
-1.0216e-05
2.82159e-05
-1.96015e-05
-6.25616e-06
3.50755e-05
9.93127e-06
-5.96478e-05
5.4057e-05
-2.97574e-05
-7.2585e-07
-9.39053e-06
-2.64802e-05
5.89009e-05
9.35843e-05
7.95006e-05
-1.68923e-05
-6.82939e-05
-7.77045e-05
4.75624e-05
-1.31736e-06
1.17442e-05
5.16303e-05
-6.31504e-05
2.21434e-05
3.45719e-05
-3.89623e-05
4.92729e-05
9.85316e-06
-2.73701e-05
-7.18007e-05
-2.20758e-06
9.41218e-06
5.68603e-05
-2.01407e-05
-8.62242e-06
7.08946e-06
9.58215e-07
-2.91978e-05
-3.67718e-05
9.87086e-07
-7.08329e-06
-7.77072e-05
4.07124e-05
2.28039e-05
-2.33534e-05
-2.82733e-05
6.35569e-06
-3.10619e-05
-2.37779e-05
5.87646e-05
3.77751e-05
-8.88548e-05
1.88741e-05
2.82156e-05
2.42065e-05
-1.97262e-05
3.13715e-05
2.6773e-05
-2.78917e-05
-1.14418e-05
4.39801e-05
-1.84722e-05
6.28969e-06
-9.41579e-06
3.67074e-05
-1.65384e-05
-2.21913e-05
-3.26342e-05
2.11539e-05
-9.0529e-05
-2.25266e-05
7.1784e-06
-1.67802e-05
-5.12952e-05
-4.15264e-05
3.02586e-05
1.87589e-05
1.3452e-05
6.79975e-05
0.000103678
-2.68699e-05
-5.62216e-05
-7.36851e-06
-8.72929e-06
-8.22148e-06
-0.000119192
3.07659e-05
9.97074e-05
7.93553e-05
2.35242e-05
2.8949e-06
3.2356e-05
6.61879e-06
-1.2741e-05
-1.12365e-05
3.50119e-06
6.08942e-05
-6.73474e-06
5.99335e-05
-9.10775e-06
-4.93437e-05
-1.25017e-05
-1.79212e-05
3.41779e-05
-3.3798e-05
7.3954e-06
5.94535e-05
0.000102923
1.58972e-05
2.07359e-06
6.60835e-05
-5.4952e-05
-6.42202e-05
4.83636e-06
5.86049e-05
-3.53626e-05
-0.000113618
-3.21856e-05
8.25291e-06
3.03729e-05
4.09433e-06
1.25875e-05
-2.57908e-05
4.0303e-06
-1.99424e-05
-0.000115459
-8.30262e-06
2.34321e-05
1.67686e-05
-9.89949e-06
-1.77943e-05
3.41071e-05
5.38381e-05
-8.89413e-07
-3.26858e-05
-1.44823e-05
1.08397e-05
2.86297e-05
1.41953e-05
-1.13214e-05
4.36335e-05
-9.70031e-06
4.36604e-05
-6.25977e-06
-6.49587e-05
8.33396e-05
7.37351e-06
-2.33587e-05
-5.29963e-05
8.21834e-06
-7.67078e-05
-5.47344e-05
1.69979e-05
-2.35277e-05
6.93041e-05
-5.89245e-05
-1.58964e-05
-3.797e-06
-4.36553e-05
1.75019e-06
6.9089e-06
-1.56339e-05
-1.26808e-05
-6.31367e-06
-2.87467e-05
6.35842e-05
-1.27358e-05
2.98877e-05
-1.94591e-05
0.00010666
-6.87309e-05
2.64286e-06
7.97831e-05
-7.28986e-05
-2.11624e-05
-1.82935e-06
-5.65511e-06
-3.07194e-05
-1.66008e-07
6.13099e-05
-4.53605e-05
-3.93693e-06
2.74235e-05
5.10004e-05
6.30086e-06
2.15231e-05
-5.93152e-05
-4.52385e-05
-4.56918e-05
-4.3974e-05
-2.38918e-05
-5.03432e-05
-2.24276e-05
-6.2891e-05
1.11947e-05
0.000117078
1.08848e-05
1.60316e-06
7.11565e-06
-1.24836e-05
-9.79612e-05
1.17279e-05
-2.43353e-05
-6.5287e-05
-4.57346e-05
9.77494e-05
-2.84505e-05
2.46852e-05
2.89709e-05
-3.39522e-05
9.19255e-05
-5.0638e-05
-3.13991e-05
4.18047e-07
2.26261e-05
5.23939e-05
-4.63509e-05
3.01981e-06
-7.25873e-05
3.62417e-05
4.53802e-05
5.10281e-05
4.96123e-05
1.1462e-05
6.3146e-06
1.38576e-05
1.4148e-06
1.35634e-05
-5.94303e-05
-5.26092e-05
-3.14447e-05
3.68993e-05
-1.13074e-06
4.39351e-06
1.65976e-05
1.01095e-05
-4.56729e-05
-5.67071e-05
-2.16054e-05
3.75381e-06
3.02097e-05
2.47175e-05
-3.70549e-05
-4.68162e-05
-8.03266e-05
-3.89204e-05
8.46452e-05
4.35197e-05
1.98982e-05
-8.17596e-06
-6.95756e-06
-5.38765e-05
3.58443e-05
-6.1851e-05
7.9043e-05
-1.59473e-05
-3.99172e-05
-6.26175e-05
3.5122e-05
5.15343e-05
1.96998e-06
-3.47057e-06
-9.94955e-06
5.45722e-05
-4.35943e-05
-3.20026e-05
3.5851e-05
-2.33698e-05
-7.19447e-06
3.16275e-05
-2.36792e-05
4.79082e-05
6.11597e-05
-1.50185e-05
5.83364e-05
-1.60108e-05
-5.55502e-05
-4.11186e-05
3.92955e-05
8.73669e-05
-9.01881e-06
2.39064e-05
5.31238e-05
-2.11771e-06
3.75919e-05
-6.11141e-05
-5.37825e-05
4.7565e-05
-2.97427e-05
-7.41597e-05
-1.30142e-05
3.82867e-06
-4.95904e-05
-1.00632e-05
1.48058e-05
3.36743e-06
-4.77566e-05
-3.26615e-05
4.78001e-06
4.40956e-05
4.04306e-05
-4.65775e-05
-4.65791e-05
9.95444e-06
6.58097e-05
1.77759e-05
-1.76013e-05
-0.000102062
4.74707e-05
-2.01666e-05
-7.77538e-06
-8.79937e-06
4.50335e-05
-5.59224e-06
-5.70056e-05
-1.93109e-05
-3.39667e-05
4.75901e-05
2.16508e-05
-2.22094e-05
-2.47788e-05
-2.5415e-05
-5.8905e-06
-1.15664e-05
-4.13179e-05
-4.02362e-05
1.20606e-06
-4.48263e-05
2.04253e-05
3.38093e-06
-2.82915e-05
3.01643e-05
9.34803e-06
-6.713e-05
-4.05746e-05
7.0933e-05
-3.39559e-05
-2.67506e-05
2.17729e-05
1.56357e-05
1.44393e-05
-8.90228e-06
-1.19938e-05
1.44324e-05
8.70284e-05
-9.70205e-07
1.24227e-05
-5.59279e-05
-1.92784e-05
3.90809e-05
3.0708e-06
-4.05499e-05
7.56688e-06
6.72851e-05
3.9499e-05
-7.47549e-05
-3.48643e-05
2.46891e-05
-5.16156e-05
3.76732e-06
-4.0855e-05
-1.83183e-05
8.32831e-05
-3.53507e-05
-3.56355e-05
-9.10182e-06
-2.37036e-05
-7.61589e-05
-4.31731e-05
-3.44523e-05
3.0332e-05
-5.93205e-05
-4.43428e-05
-1.38487e-05
2.80149e-05
4.43446e-05
7.11228e-06
-4.17698e-07
-3.37961e-05
5.63173e-05
4.62118e-05
-7.51616e-05
0.000106831
-4.85461e-05
-1.38165e-05
-8.41217e-07
-1.47615e-05
-6.57004e-05