# vtk DataFile Version 1.0
Net Charge Density
ASCII
DATASET STRUCTURED_POINTS
DIMENSIONS 256 128 1
ORIGIN 0 0 0
SPACING 0.15625 0.15625 1
POINT_DATA 32768
SCALARS rhonet float
LOOKUP_TABLE default
-3.89561e-06
-9.51274e-05
0.000144792
9.63219e-05
3.56837e-05
0.000120451
-0.000118445
9.18579e-05
0.000154216
2.28996e-05
-3.75612e-05
0.000108726
0.000103821
7.94453e-05
0.000109346
4.99608e-05
8.77432e-05
0.000140235
4.05883e-05
-6.79095e-05
-6.40773e-06
0.00014186
0.000144767
4.7782e-05
3.72676e-05
2.07423e-05
7.7422e-05
9.0589e-05
-1.35219e-05
-7.27422e-05
5.23025e-05
3.97237e-05
4.3669e-05
6.90082e-05
1.24418e-05
0.000171713
1.6807e-05
7.28723e-05
7.7358e-05
-5.53066e-06
2.29322e-05
6.83218e-06
0.000136403
9.39807e-05
2.09395e-05
1.86823e-05
-3.16135e-05
6.95547e-05
0.000116213
7.88728e-05
-1.20075e-05
2.49781e-05
8.34425e-05
0.000148995
3.55954e-05
1.75042e-05
0.000151011
-5.17471e-05
5.67804e-06
7.16954e-05
5.02795e-05
6.06019e-05
7.16862e-06
8.01795e-05
8.22489e-05
-8.03831e-05
4.41818e-05
0.000136175
4.09957e-05
4.82838e-05
7.92332e-05
3.67111e-05
-2.69159e-05
4.96674e-05
-1.1432e-07
5.11551e-05
4.20862e-05
-3.83082e-05
9.21618e-05
0.000106615
8.71845e-05
2.54085e-05
7.49616e-05
0.000101106
4.54689e-05
-4.48013e-06
-1.66912e-05
6.70481e-05
0.000119669
-2.34882e-05
9.00025e-05
-1.4795e-05
-3.90529e-05
-6.21437e-06
-8.99176e-05
5.22715e-05
0.000157961
2.40979e-05
9.16882e-05
-2.49448e-05
0.000157723
9.09184e-05
-3.16906e-06
9.47251e-05
3.9038e-05
0.000130971
-2.57976e-07
-6.85492e-05
2.66288e-06
7.39999e-05
0.00013342
5.79277e-05
2.02986e-05
3.31155e-05
8.04209e-05
4.36592e-05
1.22658e-05
7.49691e-05
5.096e-05
4.32276e-05
-3.98804e-05
-3.45636e-05
4.04445e-05
2.44901e-05
0.00011572
6.60873e-05
1.82547e-05
8.13098e-05
1.99639e-05
-1.881e-05
0.000119797
9.26164e-05
-2.24425e-06
3.77489e-05
2.03243e-05
6.79726e-06
4.46091e-05
-3.19162e-05
4.68965e-05
-1.15021e-05
-4.98416e-05
2.32954e-05
2.09621e-05
0.000160761
9.88231e-05
2.06381e-06
0.000137835
1.15244e-05
-3.11241e-05
0.000132419
1.78271e-05
2.91318e-05
0.000108428
-8.34535e-06
3.45046e-05
4.32307e-05
5.74638e-06
3.42715e-05
-5.27641e-06
1.75423e-05
7.67777e-05
2.50083e-05
0.000112709
-2.2069e-05
3.25853e-05
2.55235e-05
5.84617e-05
-6.12723e-05
0.000105448
0.000137295
2.50292e-05
4.32237e-05
7.45822e-05
0.000111579
-2.02684e-05
-8.13417e-06
8.72936e-05
-8.23219e-05
1.15574e-05
3.31808e-05
8.87695e-05
-7.05997e-05
-3.18112e-05
5.65324e-06
1.04989e-05
7.98542e-05
4.14206e-05
7.20927e-05
0.000102554
7.46852e-05
2.48838e-05
0.000198125
8.16125e-05
-6.56991e-05
6.24198e-05
0.000201229
4.75221e-05
8.32761e-05
7.86668e-05
-1.63091e-05
5.95991e-05
0.00014917
4.39011e-05
3.83356e-05
-1.00747e-05
6.97705e-05
-5.98882e-05
5.34235e-05
6.86802e-05
8.57904e-05
6.81023e-05
0.000137439
0.000106097
-2.40523e-05
0.000111081
-0.000131281
0.000102691
9.90948e-05
-5.28728e-05
-3.7921e-05
8.69741e-05
0.000114877
0.000176992
3.40524e-05
7.95295e-05
5.67446e-05
-3.6913e-05
-1.51407e-05
8.69038e-05
6.8607e-05
6.22822e-06
4.16543e-05
2.36372e-05
2.60691e-05
0.000121308
-3.55698e-05
-2.05778e-05
2.75009e-05
5.94514e-05
8.97958e-06
1.84998e-05
8.66944e-05
-5.82668e-05
-3.06871e-07
2.659e-05
-1.4409e-05
-2.21957e-05
-3.95463e-05
0.000128655
-4.29573e-06
2.10484e-05
-3.85132e-05
0.000102293
2.14379e-05
2.40523e-05
4.18611e-05
-0.000104899
2.47045e-05
-6.30285e-05
-2.51189e-05
-2.38868e-05
5.12259e-05
-2.60444e-05
-7.57638e-05
4.98939e-05
-6.60461e-05
-4.29001e-05
2.33413e-05
-5.99086e-05
-8.02726e-05
3.00317e-06
-4.24266e-05
4.66232e-06
1.08909e-05
-2.1575e-05
-4.0601e-06
-5.82074e-05
-6.74939e-05
-0.000106137
-1.79206e-05
-2.00458e-05
-5.72712e-05
-2.52762e-05
7.72986e-06
-3.07407e-05
-8.5387e-05
-3.53887e-05
-8.36118e-06
2.74422e-05
-7.95689e-05
-6.67478e-05
2.31336e-05
-0.000103179
-3.37884e-05
1.98341e-05
-8.20336e-05
-5.1587e-05
-4.38411e-05
8.67317e-06
3.55996e-05
-2.47122e-05
4.87373e-06
-0.000112384
-3.15174e-05
3.88796e-05
-3.39418e-05
-6.5613e-05
-4.11931e-05
-3.17374e-05
2.98234e-05
-2.85321e-05
-3.54566e-05
-2.34857e-05
-0.00011611
1.48106e-05
-3.37929e-05
4.56308e-05
-5.12686e-05
-5.72843e-05
-3.73456e-05
-3.01474e-05
-6.05654e-05
-1.00287e-05
-7.96345e-05
-0.000109192
1.21039e-05
-4.39815e-05
9.01718e-06
-1.84363e-05
1.72412e-05
-5.13544e-05
-1.04341e-05
4.76097e-05
-2.54941e-05
5.74091e-05
2.15718e-07
-3.24124e-05
-5.04452e-05
-8.22553e-05
2.84829e-05
2.44668e-05
-6.1695e-05
-0.000158637
-4.16987e-05
-6.57747e-08
-1.69139e-05
8.77352e-06
5.3313e-05
3.1559e-06
-1.07946e-05
2.47145e-05
-5.96535e-06
3.43234e-05
-2.73108e-05
-6.84743e-06
-1.89547e-06
-4.36439e-05
-0.000106617
-3.96514e-05
-2.96775e-05
-3.55603e-05
1.64219e-05
-5.91242e-05
-4.27192e-05
-1.06776e-06
-6.00005e-06
5.4352e-05
-3.54231e-05
-7.13798e-05
-7.13196e-05
4.01698e-05
1.15483e-05
-5.23515e-05
-1.11539e-05
9.64571e-06
3.18992e-05
-8.57754e-05
1.3961e-05
-6.13793e-05
-7.74174e-06
-3.48623e-05
-1.67096e-05
-4.55657e-05
-6.96031e-05
1.7025e-05
-4.8811e-05
-2.07972e-05
1.59813e-05
-1.05526e-05
-2.35452e-05
-1.2441e-05
-3.31049e-05
-4.60122e-05
-1.3358e-05
-4.22455e-05
-8.32276e-06
-5.94471e-05
-7.82581e-05
8.69739e-06
-2.01922e-06
-8.38249e-05
1.05489e-05
-3.22354e-05
-4.36762e-05
-0.00011768
-8.72486e-06
-3.99579e-05
-3.83072e-05
-7.16747e-05
9.37073e-06
3.00049e-05
-1.70405e-05
-2.39993e-05
-1.85624e-06
-5.11227e-05
-2.02557e-05
-8.1348e-05
-6.40948e-05
3.62429e-05
-8.02709e-05
-7.56269e-06
2.3745e-05
2.21167e-05
-5.27817e-05
-2.4254e-06
3.60708e-05
-9.46564e-05
1.02373e-05
-2.21478e-05
3.97029e-05
-4.13513e-05
-2.55473e-05
-5.70109e-06
3.04061e-05
-6.90699e-05
-4.77679e-05
3.675e-05
-4.79701e-06
2.05892e-06
-4.86569e-05
-0.000107548
-6.60238e-05
-2.66e-05
-2.24791e-05
-9.33022e-06
-1.88574e-05
-0.000101449
6.32228e-06
3.69593e-05
4.61005e-06
-1.08483e-05
-2.36544e-05
-8.50838e-05
-3.90906e-05
4.81104e-05
-6.97689e-06
-7.51882e-05
-6.46281e-05
-4.379e-05
3.0756e-05
-5.53512e-05
1.83075e-06
-5.12165e-05
9.71669e-05
1.17973e-05
-4.14071e-05
-5.2241e-05
-4.84001e-05
-4.73997e-05
3.2125e-05
-3.50822e-05
-7.29868e-05
1.69815e-06
-2.53876e-05
-1.98885e-05
4.50586e-06
-1.73198e-05
7.05676e-05
5.70886e-05
-6.70662e-05
-3.48985e-05
-2.73387e-05
-7.02045e-05
-2.06062e-05
2.42677e-05
8.58862e-05
-8.70343e-05
6.93474e-06
-4.34541e-05
-3.62697e-05
6.90327e-05
3.75879e-05
-6.27587e-05
-4.99201e-06
2.55416e-05
-5.11216e-05
2.26247e-05
-1.34828e-05
-4.80216e-05
-1.98233e-05
3.05544e-06
3.73248e-05
3.42672e-05
-1.23484e-05
-2.31679e-05
-0.000132199
-1.67056e-07
-7.60634e-06
5.1258e-05
-7.35256e-06
-7.36322e-05
5.01634e-06
-3.30429e-05
-1.99093e-06
5.00251e-05
-7.79703e-06
-2.33895e-05
-8.48097e-06
1.05391e-06
-1.92296e-05
7.13235e-05
-5.1523e-05
7.8216e-06
3.11628e-05
6.53445e-05
-4.67906e-05
-2.9064e-05
-1.14905e-05
-2.49571e-05
-9.34285e-05
-2.0482e-05
3.51598e-05
4.88627e-05
3.64084e-05
-1.6453e-05
3.77703e-05
6.14577e-05
-4.75245e-05
4.48456e-05
4.40088e-05
9.82312e-06
-5.10868e-05
1.23072e-05
2.34435e-05
7.04303e-05
4.96679e-05
-3.57148e-05
2.25293e-05
5.27385e-06
-2.51166e-05
4.80094e-05
3.40396e-05
2.1162e-05
-2.89197e-05
-7.34259e-05
2.16751e-05
3.48728e-05
1.4205e-06
-4.63354e-05
1.81736e-06
-1.65713e-05
5.22446e-05
1.92708e-05
-4.25107e-05
-9.05951e-05
6.88469e-06
2.94285e-05
9.43325e-06
3.9076e-05
-4.01762e-05
2.79779e-05
-3.30701e-05
9.02754e-05
1.87054e-05
2.19359e-05
-2.38954e-05
3.89217e-05
7.9507e-05
-1.4297e-06
-1.07867e-05
-4.31223e-05
-5.63422e-05
3.65559e-05
5.69131e-06
-2.97665e-05
3.18509e-05
-3.75111e-05
-1.97685e-05
6.36951e-05
5.06418e-05
-4.8059e-05
-4.18766e-05
-9.31253e-06
-2.63556e-05
-1.33659e-05
5.09449e-05
7.41071e-05
-1.38809e-05
-5.52132e-05
-6.02393e-05
2.25474e-05
4.01648e-05
-3.56468e-05
4.60858e-05
6.04026e-05
1.0042e-05
-2.72853e-05
-6.84023e-05
1.03842e-05
-3.90667e-05
-6.67317e-05
1.8933e-05
-3.86648e-05
-7.26089e-05
1.55343e-05
3.44656e-05
-9.18168e-06
-2.52379e-05
3.4999e-05
6.71945e-05
-7.81426e-06
-2.3485e-05
1.90864e-05
-3.45563e-05
-3.24706e-06
3.17621e-05
-4.33628e-05
-4.44565e-05
-1.29162e-05
6.19069e-05
-1.54722e-05
-1.92431e-05
-9.33767e-07
1.07803e-05
-2.67865e-05
6.43283e-05
6.29108e-07
3.16115e-05
-3.45439e-05
-2.02106e-05
3.2981e-05
-8.93022e-06
-5.33775e-05
-6.58382e-05
-1.97735e-05
2.3836e-06
3.6547e-05
8.36758e-06
-1.87848e-06
1.48286e-05
-2.75734e-05
4.24774e-05
2.79527e-05
9.69113e-05
6.65827e-05
1.94265e-05
1.45666e-05
-1.36639e-05
5.90176e-05
5.77696e-05
-3.53309e-05
8.6556e-05
-1.88483e-05
-2.1022e-05
-5.39359e-05
1.12336e-05
-1.22981e-05
7.03165e-05
-1.07867e-05
6.14906e-06
5.77942e-05
3.47518e-05
-3.56397e-05
-5.85592e-06
4.38266e-05
2.99952e-05
1.48884e-05
3.09409e-06
-6.29968e-05
1.44143e-05
-9.34467e-05
4.10874e-05
-3.34166e-05
-7.29716e-05
6.78678e-06
-4.31378e-05
3.26064e-05
-5.40701e-05
-3.51891e-05
-7.38096e-06
-3.46785e-05
7.78108e-06
5.28591e-05
1.66988e-05
-1.61445e-06
7.61887e-05
-2.89665e-06
5.27902e-05
3.30991e-05
2.69057e-05
3.20115e-05
-4.14018e-05
-7.91213e-05
6.70482e-06
-3.71058e-05
3.38303e-07
3.1288e-05
2.55895e-05
4.6243e-05
-7.34429e-06
3.8557e-05
-1.82488e-05
8.60395e-05
-3.51768e-05
-2.42111e-05
-2.4479e-05
3.96871e-05
3.96363e-05
-5.59585e-06
-1.59817e-05
5.26491e-05
-3.12824e-05
-9.51241e-06
1.32093e-05
3.03077e-05
4.01435e-05
-6.21297e-05
6.55721e-06
-4.02801e-05
7.68158e-05
-2.30577e-05
2.42726e-06
-2.36239e-05
-7.65675e-06
1.05589e-06
-7.58462e-05
1.89048e-05
4.24918e-05
2.73308e-06
-4.68805e-05
-0.000111356
2.32975e-05
1.92821e-05
1.6694e-06
4.11416e-05
-1.26256e-05
3.11504e-06
-2.15394e-05
-7.41895e-05
3.5779e-05
1.81664e-05
-4.43209e-05
1.38059e-05
2.4942e-05
-1.40069e-05
-5.45259e-05
-1.59678e-05
4.84833e-05
-4.49922e-06
-0.000139603
5.79735e-05
3.08065e-05
0.000100899
-3.72751e-05
3.82715e-05
1.96721e-05
-2.19455e-05
-3.16994e-05
-3.15023e-05
5.7979e-05
8.84754e-05
-9.06759e-06
-5.9989e-05
9.21835e-06
8.46363e-06
-1.82772e-08
-2.07851e-05
-3.90373e-05
0.000130274
-3.43213e-05
-4.70516e-05
5.37109e-05
-2.79676e-06
2.82214e-06
-3.7919e-05
-6.05412e-05
4.75427e-05
4.84363e-05
-1.7537e-05
3.74633e-05
-5.19101e-05
4.18178e-05
3.39507e-05
-6.99729e-05
2.73667e-05
3.88057e-05
1.67805e-05
-5.26786e-05
6.28695e-05
-2.1962e-05
-4.31014e-05
-7.40297e-06
-2.66786e-05
4.25469e-05
3.64985e-06
2.75731e-05
-4.73876e-05
-6.43707e-06
3.03097e-05
-2.26302e-05
-8.19343e-05
-4.95827e-05
1.36239e-05
3.36367e-05
4.53523e-05
-3.78168e-05
6.72052e-05
-2.02067e-05
-6.23041e-05
4.74697e-05
4.62763e-05
1.24056e-05
3.82876e-05
2.15038e-05
5.8714e-05
-6.49999e-05
-4.25666e-05
-1.3412e-05
4.39057e-05
4.78699e-05
-2.23203e-05
-6.0518e-05
1.98302e-06
-2.43844e-06
-3.00121e-05
1.48924e-05
2.92042e-05
7.28868e-05
7.06632e-05
-3.58253e-05
-0.000140627
2.58452e-05
1.2035e-06
-2.88261e-05
-4.69701e-05
5.72427e-05
3.12583e-05
1.75566e-05
-0.000107816
-1.58469e-05
1.13324e-05
3.99516e-05
3.2814e-05
-4.30102e-05
3.20368e-05
3.74886e-05
-3.91933e-05
2.83306e-05
3.71948e-05
-1.37144e-05
3.56371e-05
-5.44155e-05
8.30443e-05
3.03247e-05
-1.9427e-05
-2.67291e-05
6.84282e-05
4.1218e-05
-2.91599e-05
3.35345e-05
3.92139e-05
3.68371e-05
-3.48371e-05
-2.81517e-05
1.41674e-05
3.52943e-05
-7.15661e-05
-2.16156e-05
4.60055e-05
3.64991e-05
2.31862e-05
-3.12361e-05
-7.13486e-05
2.25483e-05
-3.52722e-05
7.69856e-05
-4.16427e-05
-1.37863e-05
7.45147e-05
-5.4067e-05
4.00445e-06
-1.7785e-05
-5.58048e-05
2.01231e-05
5.96035e-06
5.05818e-05
6.31157e-05
-6.58255e-05
8.14182e-05
-4.32236e-05
-2.44335e-05
2.672e-05
4.39386e-06
9.56783e-06
7.6557e-06
4.39095e-06
-4.22159e-05
2.17024e-05
1.01267e-05
-1.56355e-05
-7.88136e-05
-2.79718e-05
-7.33207e-06
2.62829e-05
6.22892e-06
2.384e-05
-8.04046e-06
5.26163e-05
3.00962e-05
-3.07952e-05
-8.68584e-05
1.14744e-05
3.87328e-05
1.11609e-05
-2.85616e-05
-9.12533e-06
-2.48104e-06
2.2119e-05
-3.22983e-06
2.53445e-05
2.25471e-05
3.20969e-05
-2.08742e-05
-3.06359e-06
6.05499e-06
-3.414e-06
3.49659e-05
-2.44867e-05
5.34742e-05
1.96628e-05
1.27882e-05
-1.15694e-05
2.92535e-05
2.87103e-06
3.39587e-05
-1.87161e-05
-2.88629e-06
-6.90415e-05
2.46685e-05
-5.03927e-06
-1.26845e-05
2.05983e-05
-2.63406e-05
-2.66079e-06
-3.0248e-05
-7.38938e-05
-1.16543e-05
0.000124286
-9.67173e-05
2.30565e-05
4.0888e-05
1.12085e-05
1.89698e-05
2.2975e-05
-6.50401e-05
-1.85566e-05
-3.58935e-05
9.8882e-06
-2.25088e-05
-0.000114619
5.06438e-05
-0.000120174
-5.21552e-05
0.000129995
-2.85538e-05
-3.29314e-05
1.3981e-05
-3.0878e-06
-4.58537e-06
-6.87178e-05
5.01168e-07
2.54066e-05
-3.06813e-05
-4.83699e-05
-2.09836e-05
3.77456e-05
3.99082e-05
1.09898e-05
-3.37753e-05
2.43066e-05
4.91928e-05
4.58602e-05
-7.13923e-05
-6.57428e-05
-4.48674e-05
5.14656e-05
2.45136e-06
-1.54658e-06
-6.96712e-05
3.41912e-07
-1.04236e-05
6.89458e-06
-2.2904e-05
-2.35578e-06
-3.06215e-05
3.27415e-05
-3.2268e-06
-1.03376e-05
-2.52565e-05
2.84621e-05
9.52232e-05
-3.02619e-05
3.2171e-05
4.43808e-05
-4.54087e-05
-0.000101101
-3.30774e-05
0.00011101
6.25448e-05
-5.28286e-05
-0.000107186
-1.18129e-05
6.8567e-05
3.46117e-05
-5.40469e-05
-5.21378e-05
4.75178e-05
-4.06372e-05
-0.000119436
6.1203e-05
-1.81565e-05
-3.11725e-05
0.000105494
-4.5473e-05
-9.29435e-05
-5.38452e-05
9.50554e-06
-5.54987e-05
1.67226e-05
4.28199e-06
-7.23691e-05
6.52438e-06
4.59249e-05
6.77735e-06
-2.06614e-06
5.32222e-05
2.83381e-05
-3.75983e-05
-4.8551e-05
0.000104193
-1.62808e-05
-5.7281e-06
-2.96996e-05
-2.67313e-06
-4.58125e-05
8.22742e-06
-1.31109e-05
-4.38882e-05
-3.36716e-05
-5.49536e-05
4.80602e-05
-3.43892e-05
5.50938e-05
-3.26771e-05
-2.49946e-05
-9.60997e-06
3.26959e-05
-4.34385e-05
8.21739e-05
3.9906e-06
1.01081e-05
-2.64166e-05
-1.68476e-06
5.18314e-05
-5.05234e-05
7.65342e-05
-2.69971e-05
-2.84486e-05
5.25312e-06
1.91289e-05
5.7527e-05
-1.55075e-05
1.4148e-05
1.54793e-05
9.67538e-05
-2.6059e-05
2.79699e-06
-6.86487e-05
-4.36441e-06
5.35545e-06
-6.22822e-07
-1.1227e-05
2.76121e-05
-7.06452e-05
2.38868e-05
3.64638e-05
-5.86116e-06
-1.47324e-05
5.85358e-05
-1.46381e-06
5.05242e-07
-8.36328e-06
-6.68826e-05
-7.45908e-06
-5.6677e-05
5.49138e-05
-1.55678e-05
-6.51166e-05
1.93964e-05
-2.501e-05
1.49549e-05
4.44495e-05
-8.87876e-06
-5.64918e-05
-7.07051e-05
-8.34139e-06
-2.96301e-05
-2.15298e-06
-1.8321e-05
-1.89303e-06
-0.000102778
8.74803e-06
3.24822e-05
3.07962e-05
-0.000103662
-3.61557e-05
2.0243e-05
8.39115e-05
4.75324e-06
-1.31456e-05
3.19699e-05
7.14557e-07
-3.71372e-05
-7.51376e-05
-6.92124e-05
-2.21224e-06
-7.09698e-05
1.36695e-06
-4.37521e-05
5.21009e-05
-3.20335e-05
-2.11224e-05
9.38214e-06
-1.06031e-06
4.85126e-06
-2.59294e-05
5.72978e-05
-2.03834e-05
4.02207e-05
1.71226e-05
-4.36107e-05
4.79084e-06
-4.09902e-05
-3.48431e-07
2.3094e-05
-3.31623e-05
1.34481e-05
1.23593e-05
-2.6104e-05
-4.63816e-05
1.17684e-05
-4.40201e-05
0.000100773
4.16166e-05
5.95758e-05
5.7267e-06
3.63565e-06
3.72168e-05
-2.83867e-05
-2.65322e-05
-3.87037e-05
-3.32444e-05
-2.94461e-06
-4.83426e-06
-7.42383e-05
-9.21183e-05
-4.12924e-05
9.36035e-05
1.79687e-05
2.46144e-05
5.07901e-05
-3.90915e-05
-4.86935e-05
-6.07772e-05
2.91871e-05
-7.01526e-05
2.39772e-05
5.70999e-05
1.43814e-05
-8.54452e-05
6.48927e-05
5.6409e-06
1.15003e-05
-0.000120717
5.33732e-05
7.3608e-05
5.39143e-06
1.38741e-05
1.18414e-05
-9.65095e-06
3.66956e-05
-3.03434e-05
4.71815e-05
6.17246e-05
-4.68048e-06
-4.04324e-05
-2.98406e-05
4.83438e-06
-1.19186e-06
4.36944e-05
-1.84949e-06
-1.13773e-05
-1.70621e-05
7.8248e-05
-4.58304e-06
1.79145e-05
-3.62854e-05
-7.78631e-05
7.3835e-05
-9.19305e-05
-5.20842e-06
2.09277e-05
2.3063e-06
7.05891e-05
3.83815e-05
7.42148e-06
5.50146e-05
-1.01447e-05
4.60943e-05
-1.68375e-05
-5.8875e-05
-4.91893e-05
5.14222e-05
5.45882e-05
-1.98531e-05
5.81014e-05
3.0201e-05
1.38807e-05
2.2496e-05
6.25562e-05
6.90226e-06
-8.80093e-05
-1.34255e-05
-5.00819e-06
4.87005e-05
5.99244e-05
6.3092e-05
1.42702e-06
2.14423e-05
-2.66384e-05
-9.90415e-06
-6.22044e-05
-1.60292e-05
3.25942e-05
-3.85356e-05
-1.90414e-05
5.31545e-05
-2.28165e-05
1.54102e-05
-4.23561e-05
-5.64847e-07
-5.11481e-05
-1.07909e-05
-0.000114607
2.06342e-05
1.91693e-05
7.28539e-05
2.73277e-05
-4.94901e-05
5.05779e-05
5.27871e-05
6.41998e-05
-7.99028e-06
4.4397e-05
-4.86514e-05
-2.58867e-05
-3.12889e-05
9.76643e-05
-4.46024e-05
-4.87099e-05
2.70447e-05
-5.04584e-05
1.36545e-05
-9.01837e-05
-0.000131355
6.04788e-05
5.67492e-05
-1.70091e-05
2.47733e-05
-9.10833e-06
5.16704e-05
-8.06581e-05
3.82905e-05
3.78336e-05
1.59066e-05
-7.97538e-06
-6.65593e-06
3.57423e-05
3.13771e-05
-9.32615e-05
-4.72956e-05
-9.38072e-05
-4.97692e-05
6.84744e-05
-3.54389e-05
9.14489e-06
-3.6623e-05
3.87215e-05
1.69351e-05
4.47611e-05
-5.40494e-05
2.94934e-05
6.61319e-05
1.22404e-05
-6.64287e-05
1.13342e-06
1.48172e-05
-1.36939e-05
6.08946e-05
-9.08622e-07
7.89312e-05
9.09623e-06
5.26165e-05
-9.66366e-05
3.41141e-05
6.60575e-06
-1.27816e-05
-4.43459e-05
-2.06705e-05
3.15008e-06
-9.3109e-07
-6.3061e-05
-0.000100798
-4.15868e-05
-9.15087e-05
-4.81866e-05
5.62919e-05
-1.52455e-05
-5.22909e-05
-2.41196e-05
-1.08293e-05
-4.57688e-05
-4.23091e-05
1.19053e-05
2.8361e-05
-1.41367e-05
-5.2825e-05
-6.13475e-05
1.7733e-05
1.07333e-05
-2.08274e-05
5.96301e-05
1.79093e-06
2.51192e-05
-2.36357e-05
5.8868e-05
3.18951e-05
4.76108e-05
-7.31889e-05
7.22467e-05
-0.000100922
-6.24079e-06
6.49318e-05
8.48889e-06
3.23072e-05
-3.30713e-06
-4.32208e-05
2.37813e-06
1.99967e-05
-1.27284e-05
9.59355e-06
3.614e-05
2.75432e-05
6.92136e-05
-2.72389e-06
-6.32236e-05
-6.14603e-06
-7.61065e-06
-1.021e-05
4.45028e-05
5.2012e-06
2.67307e-05
-6.62985e-06
-4.79841e-06
-2.94808e-05
1.43548e-05
5.68957e-06
6.79196e-05
9.01183e-06
3.43908e-05
1.84253e-05
1.29039e-05
-4.46525e-05
3.45935e-05
3.36543e-05
1.93808e-06
-1.88091e-05
4.46872e-05
-5.23902e-05
6.75363e-05
7.74649e-05
6.37129e-06
8.13847e-05
-3.18115e-05
2.20675e-05
-1.73562e-05
-2.87808e-05
-6.86576e-05
1.19238e-05
2.47915e-05
1.23702e-05
-3.48673e-05
2.16777e-05
-2.20751e-05
-3.52541e-06
1.23342e-05
1.71002e-06
2.97131e-05
-6.88566e-05
-1.33741e-05
9.18955e-05
-3.43517e-05
1.47281e-05
-1.23635e-05
4.94565e-05
2.42065e-05
-4.44679e-05
5.05936e-05
0.000106778
9.66933e-05
6.52514e-05
8.89297e-07
-7.20681e-06
-1.14564e-05
6.66903e-05
-5.448e-06
4.01796e-05
-2.33976e-05
4.17557e-05
-3.4128e-05
-2.13978e-05
6.28061e-06
-2.6264e-05
3.58216e-05
-8.93141e-05
4.69469e-05
-3.57559e-05
3.30255e-05
2.34636e-05
-9.97112e-05
2.21344e-05
3.57021e-05
-1.87462e-05
2.13261e-05
-6.78238e-05
2.71617e-05
-5.16977e-05
5.6815e-05
4.88439e-05
-1.748e-05
3.80416e-05
4.5417e-05
1.17874e-05
-8.37992e-06
2.075e-05
-2.05644e-05
5.28266e-05
-7.57065e-05
-4.26269e-05
-7.67212e-06
2.04985e-05
-1.54362e-05
-3.1233e-05
1.17396e-05
6.2165e-05
4.88081e-05
4.33717e-06
-0.000127571
-5.02242e-05
-6.86678e-05
-6.60995e-05
3.0914e-05
7.61505e-05
-7.01353e-05
-7.02997e-06
9.28587e-06
4.82402e-05
3.83938e-06
8.47294e-06
-6.75755e-05
-1.85837e-05
1.21738e-05
-8.66875e-06
-3.19525e-05
-1.42837e-05
3.18326e-06
7.33044e-06
1.82413e-05
2.5652e-05
-6.78833e-05
-4.71401e-06
3.4929e-05
-5.0533e-05
1.0794e-05
-1.50151e-05
-1.63049e-05
-2.95395e-05
9.53889e-05
2.63909e-05
-1.76692e-05
-2.15019e-05
-1.27987e-05
8.03301e-06
-1.35803e-05
2.63902e-05
-7.18527e-06
-1.90843e-05
2.17278e-05
5.39321e-05
-9.03434e-05
5.79043e-05
-1.44783e-05
-1.46059e-05
-3.8323e-05
-4.54381e-05
2.61618e-05
5.74823e-05
2.07163e-05
1.80583e-05
2.61946e-05
-7.22136e-06
-2.65968e-05
2.38707e-05
-3.81793e-05
-3.29991e-05
2.86615e-05
4.19596e-06
5.3414e-05
-1.29022e-05
-4.54613e-06
9.10498e-05
1.63326e-05
1.6914e-05
-4.6327e-05
3.5574e-05
-3.91706e-05
2.29455e-05
1.72227e-05
3.08664e-06
6.80584e-05
6.72808e-05
-1.70227e-05
-7.54697e-06
4.55864e-05
-1.23875e-05
-6.61309e-06
0.000122596
3.26273e-05
1.82131e-05
2.49491e-05
-5.2253e-05
-2.22391e-05
-5.70167e-05
1.30432e-06
7.69098e-06
2.41783e-05
1.07719e-05
-5.20683e-05
1.767e-05
6.44934e-05
-6.11885e-05
5.44066e-05
-4.49312e-05
-7.05204e-05
6.2309e-06
3.27921e-05
4.70878e-05
1.32725e-06
1.32954e-05
-7.78601e-05
-2.81831e-05
-6.89237e-06
0.000112601
3.6848e-05
-3.34257e-05
4.85632e-05
3.18347e-05
1.14893e-05
6.94901e-05
0.000133271
-7.38584e-05
-4.20369e-05
-1.68965e-05
2.04112e-05
8.13347e-06
-1.95534e-05
3.47551e-05
5.05913e-05
-6.30392e-05
-4.22695e-05
1.79625e-05
5.70347e-05
-6.6706e-07
2.83981e-05
-3.47801e-05
-8.23162e-05
-3.16934e-05
-5.51018e-05
-1.69476e-05
6.43994e-05
-5.57771e-05
5.25204e-05
-0.00011234
-7.10652e-05
-1.52234e-05
-1.60271e-05
-3.59302e-05
5.28323e-05
4.40278e-05
-4.75463e-06
-6.05786e-05
-2.03256e-05
1.7212e-05
2.40908e-05
-2.15003e-05
-3.8028e-05
1.84205e-05
-5.22969e-05
-1.48042e-05
-9.04265e-05
-1.86131e-05
-1.40982e-05
0.000121308
-2.54712e-05
5.25202e-05
3.79473e-05
3.11928e-05
-3.85314e-05
-5.10248e-06
-4.49661e-05
2.62947e-05
1.12428e-05
-1.86058e-05
1.7443e-05
-3.76212e-05
8.71089e-06
-3.17955e-05
7.14657e-05
-7.47017e-05
0.000101809
5.19645e-05
3.18055e-05
1.94164e-05
4.63661e-05
-3.00538e-06
1.6239e-05
7.9999e-05
3.675e-06
-1.37989e-05
-5.21085e-05
-5.62191e-05
2.68221e-05
-3.78018e-05
-4.78234e-05
2.88635e-05
-2.68993e-05
-1.16553e-05
-5.02804e-05
3.10759e-05
-2.00598e-05
3.8109e-05
-8.71739e-05
-4.69051e-05
1.67193e-05
4.9243e-05
9.12754e-06
1.42574e-06
-6.69428e-05
-7.27301e-05
-1.43619e-05
-9.74454e-06
-1.56977e-05
2.67376e-05
-9.21222e-05
-5.8864e-05
-1.25876e-05
5.10608e-05
-8.97489e-05
7.86007e-05
1.30901e-05
1.51683e-05
-0.000114672
-4.1971e-05
1.06482e-05
8.84158e-05
-6.75349e-06
-6.93114e-06
1.08088e-05
-9.15193e-05
-1.49587e-05
1.07784e-05
5.18088e-05
-3.28284e-05
4.25936e-05
9.43057e-06
7.85221e-07
4.03611e-05
-3.83519e-06
2.66719e-05
-2.2187e-05
6.11064e-07
2.16404e-06
1.83089e-05
-2.01631e-05
-7.52348e-05
-8.20154e-05
-4.0883e-05
3.06882e-05
3.11446e-05
-1.76039e-05
-1.1489e-05
3.87505e-05
9.27411e-06
1.17535e-05
-4.4488e-05
-5.27482e-05
-4.26522e-05
9.60724e-05
-3.91068e-05
-6.17559e-05
-4.51253e-05
4.71994e-06
-4.15781e-05
-1.74763e-06
2.57662e-05
4.81138e-05
-3.50769e-05
2.89143e-05
3.42637e-05
2.19486e-05
-2.03148e-05
-2.84293e-05
2.95839e-05
6.23245e-05
1.8149e-05
-1.77085e-05
-4.22893e-05
-3.5183e-06
6.32228e-05
3.54694e-06
7.6323e-06
-5.29422e-06
1.01697e-05
2.74982e-05
2.9136e-05
-2.60755e-05
-5.97396e-05
8.67874e-05
3.29316e-05
-1.45735e-05
-1.42368e-05
5.72898e-05
3.84299e-06
9.81885e-05
0.000121367
-2.8594e-05
2.49981e-05
7.87119e-06
-1.86717e-05
-1.70156e-05
-7.32369e-05
0.000112081
-1.25973e-05
-6.01783e-05
7.86223e-06
3.08834e-05
9.78354e-06
7.84139e-06
1.71363e-05
4.81959e-08
-2.67224e-05
-2.56809e-05
-4.13358e-05
-4.55834e-05
-1.76241e-05
-7.76525e-06
-4.82692e-05
7.1398e-05
1.64242e-05
3.01735e-05
-3.196e-05
1.3984e-05
-1.39402e-05
-1.55898e-05
4.47675e-06
-1.65852e-05
8.27654e-05
5.56017e-05
5.6728e-06
3.54114e-05
2.86172e-06
-1.63059e-05
2.07492e-05
9.63244e-06
-1.45012e-05
-4.88872e-05
-4.07477e-05
-9.69158e-06
4.12583e-05
-2.15801e-05
-3.41521e-05
5.64964e-05
-1.37319e-05
-5.04194e-05
3.84736e-05
-2.33627e-05
-1.19605e-06
-5.94479e-05
5.95278e-06
6.40082e-05
-7.39722e-05
-2.23713e-05
-4.28897e-06
-7.43159e-05
-1.58095e-05
5.60065e-05
-2.41022e-05
5.20142e-05
4.58723e-05
-3.16431e-05
0.000122277
2.89965e-05
1.20705e-05
-2.74092e-05
-3.44682e-05
-3.20198e-05
5.98461e-05
4.27904e-05
-2.54272e-05
-1.62862e-05
4.25264e-05
4.55981e-05
-7.08048e-05
-4.53843e-05
-1.75918e-05
6.00137e-05
3.70808e-05
4.36972e-05
-7.64476e-06
2.1755e-05
1.48435e-05
1.47813e-05
3.49523e-05
1.44994e-05
-7.1735e-05
5.90795e-05
3.93526e-05
-1.62125e-05
4.74525e-05
-1.8456e-05
-3.84231e-05
8.46084e-05
5.78987e-05
5.29934e-05
-2.82943e-05
-1.40258e-05
-3.3821e-06
6.56869e-05
1.70162e-05
1.81657e-05
-1.45177e-05
-3.22151e-05
8.30228e-06
5.70642e-05
3.72087e-05
6.89616e-05
3.92864e-05
3.07859e-05
-1.59352e-05
4.175e-05
8.47294e-06
-3.21832e-05
-1.07548e-05
-1.45918e-05
5.39306e-05
1.21891e-05
2.11238e-05
-2.64747e-05
1.12989e-05
-2.39073e-05
-1.4451e-05
1.09975e-05
-7.73405e-06
4.69026e-06
1.68594e-05
6.67055e-05
1.5799e-05
-0.000107579
-8.24988e-05
6.52228e-06
-5.85073e-05
5.17321e-05
1.84864e-05
1.66777e-05
-7.07683e-05
5.68526e-06
-1.86224e-05
-4.33439e-05
5.83283e-05
-4.15361e-05
-7.76739e-05
-1.33215e-05
-3.74744e-05
-1.09943e-06
5.06307e-05
3.43446e-05
5.21394e-05
2.95311e-05
4.7144e-05
-2.02376e-05
0.000134813
5.51662e-05
-3.82708e-05
-1.12214e-05
0.000111733
1.12853e-06
-1.38335e-05
-2.07321e-05
-1.0534e-05
5.7515e-06
2.51085e-05
-6.47177e-05
1.22306e-06
0.00011825
2.02321e-05
-6.96788e-05
-8.34573e-05
9.0689e-05
4.29547e-05
-6.09939e-05
-2.33622e-06
4.5239e-06
-2.48617e-05
-7.49839e-05
-6.30086e-06
3.39786e-05
6.28869e-05
-2.65858e-06
-2.97548e-05
-6.6773e-05
-1.08315e-05
7.42322e-06
3.0318e-05
-1.26916e-05
1.26485e-05
-3.2475e-05
-1.5403e-05
4.65967e-05
-6.06873e-07
-7.33226e-05
-3.61169e-05
3.19348e-05
5.0712e-05
5.52048e-05
-3.86604e-05
-2.7102e-05
-1.73203e-06
4.00429e-05
-1.28828e-05
1.15234e-05
2.7539e-05
1.51002e-05
2.02364e-05
3.27817e-05
-0.000103584
-2.37203e-05
5.62994e-05
-3.56046e-05
-8.56407e-05
0.000101617
-2.90708e-05
2.15797e-05
-5.19508e-05
6.29353e-06
-5.95585e-05
3.80212e-06
-4.01152e-05
2.2179e-05
-9.73756e-06
6.35828e-05
-2.76129e-05
-2.54391e-05
9.06728e-05
-5.55888e-05
-3.5144e-05
1.47808e-05
-2.30942e-05
3.46838e-05
-4.10139e-05
-1.09313e-05
2.98406e-05
3.45639e-05
-4.78454e-05
-5.78734e-05
-3.72988e-05
3.5862e-05
-1.02365e-05
-1.76758e-05
3.8347e-05
4.55079e-06
-3.07256e-05
-6.3175e-05
6.1912e-06
-5.68887e-05
0.000120349
-0.000117729
-6.80865e-05
1.01863e-05
-1.02157e-05
2.82165e-05
-1.9602e-05
-6.25616e-06
3.50751e-05
9.93162e-06
-5.96484e-05
5.40573e-05
-2.97572e-05
-7.25966e-07
-9.39041e-06
-2.64804e-05
5.89008e-05
9.35841e-05
7.95012e-05
-1.68919e-05
-6.82937e-05
-7.77042e-05
4.75624e-05
-1.31724e-06
1.17442e-05
5.16307e-05
-6.31501e-05
2.21428e-05
3.45719e-05
-3.89626e-05
4.9273e-05
9.85339e-06
-2.73697e-05
-7.18009e-05
-2.20747e-06
9.41241e-06
5.68596e-05
-2.014e-05
-8.62288e-06
7.08958e-06
9.57516e-07
-2.9198e-05
-3.6772e-05
9.87784e-07
-7.08259e-06
-7.77076e-05
4.07126e-05
2.28042e-05
-2.33536e-05
-2.82733e-05
6.35511e-06
-3.10617e-05
-2.37778e-05
5.87645e-05
3.77755e-05
-8.88546e-05
1.88738e-05
2.82153e-05
2.42069e-05
-1.97263e-05
3.13711e-05
2.67721e-05
-2.78917e-05
-1.14413e-05
4.39796e-05
-1.84726e-05
6.28969e-06
-9.41602e-06
3.67071e-05
-1.65377e-05
-2.21909e-05
-3.26342e-05
2.11537e-05
-9.05292e-05
-2.25264e-05
7.17863e-06
-1.67799e-05
-5.1295e-05
-4.15258e-05
3.02581e-05
1.87589e-05
1.3452e-05
6.79973e-05
0.000103678
-2.68702e-05
-5.62217e-05
-7.36839e-06
-8.72975e-06
-8.22078e-06
-0.000119192
3.07658e-05
9.97076e-05
7.93551e-05
2.35243e-05
2.89467e-06
3.23557e-05
6.61903e-06
-1.27403e-05
-1.12373e-05
3.50166e-06
6.08942e-05
-6.73428e-06
5.99341e-05
-9.1081e-06
-4.93436e-05
-1.2502e-05
-1.792e-05
3.41788e-05
-3.3798e-05
7.3961e-06
5.94535e-05
0.000102923
1.58971e-05
2.07336e-06
6.60841e-05
-5.49522e-05
-6.42205e-05
4.83659e-06
5.86053e-05
-3.5362e-05
-0.000113619
-3.21863e-05
8.25187e-06
3.03729e-05
4.09444e-06
1.25879e-05
-2.57913e-05
4.03007e-06
-1.99422e-05
-0.000115459
-8.30286e-06
2.34321e-05
1.6768e-05
-9.89926e-06
-1.77936e-05
3.41069e-05
5.3838e-05
-8.8918e-07
-3.26855e-05
-1.44823e-05
1.08392e-05
2.86297e-05
1.4196e-05
-1.13213e-05
4.36334e-05
-9.69984e-06
4.36606e-05
-6.25988e-06
-6.49588e-05
8.33401e-05
7.37351e-06
-2.3359e-05
-5.29962e-05
8.21822e-06
-7.67075e-05
-5.47346e-05
1.69976e-05
-2.3528e-05
6.93038e-05
-5.89243e-05
-1.58964e-05
-3.79642e-06
-4.36553e-05
1.74972e-06
6.90902e-06
-1.56335e-05
-1.26815e-05
-6.31332e-06
-2.8747e-05
6.35838e-05
-1.27358e-05
2.98873e-05
-1.94588e-05
0.00010666
-6.87313e-05
2.64263e-06
7.97826e-05
-7.28979e-05
-2.11628e-05
-1.82923e-06
-5.65522e-06
-3.07191e-05
-1.6531e-07
6.13104e-05
-4.53616e-05
-3.93693e-06
2.74241e-05
5.10006e-05
6.30179e-06
2.15227e-05
-5.93152e-05
-4.52385e-05
-4.56918e-05
-4.39739e-05
-2.38918e-05
-5.03433e-05
-2.24273e-05
-6.28915e-05
1.11952e-05
0.000117078
1.08846e-05
1.6035e-06
7.11565e-06
-1.2483e-05
-9.79614e-05
1.17283e-05
-2.43351e-05
-6.52876e-05
-4.5734e-05
9.77495e-05
-2.84507e-05
2.46855e-05
2.89712e-05
-3.39519e-05
9.19257e-05
-5.06382e-05
-3.13993e-05
4.18862e-07
2.26261e-05
5.23939e-05
-4.63516e-05
3.01923e-06
-7.25877e-05
3.62418e-05
4.53799e-05
5.10279e-05
4.96118e-05
1.14613e-05
6.31448e-06
1.38575e-05
1.41456e-06
1.35633e-05
-5.94305e-05
-5.26088e-05
-3.14452e-05
3.68987e-05
-1.13039e-06
4.39398e-06
1.65974e-05
1.011e-05
-4.56737e-05
-5.67073e-05
-2.16047e-05
3.75381e-06
3.02102e-05
2.47173e-05
-3.70548e-05
-4.68157e-05
-8.03266e-05
-3.89203e-05
8.46448e-05
4.352e-05
1.98981e-05
-8.17585e-06
-6.95745e-06
-5.38765e-05
3.58437e-05
-6.18508e-05
7.9043e-05
-1.59475e-05
-3.99173e-05
-6.26172e-05
3.51224e-05
5.15337e-05
1.97045e-06
-3.47116e-06
-9.9492e-06
5.45727e-05
-4.3594e-05
-3.20036e-05
3.58504e-05
-2.33696e-05
-7.19377e-06
3.16271e-05
-2.36784e-05
4.79087e-05
6.11595e-05
-1.50189e-05
5.83364e-05
-1.60108e-05
-5.55501e-05
-4.11182e-05
3.92955e-05
8.7367e-05
-9.01869e-06
2.39073e-05
5.31243e-05
-2.11759e-06
3.75918e-05
-6.11136e-05
-5.37825e-05
4.75654e-05
-2.97431e-05
-7.41597e-05
-1.3014e-05
3.82902e-06
-4.959e-05
-1.00635e-05
1.4806e-05
3.36696e-06
-4.77564e-05
-3.26606e-05
4.78001e-06
4.40958e-05
4.04303e-05
-4.65775e-05
-4.65787e-05
9.95444e-06
6.58099e-05
1.77765e-05
-1.76013e-05
-0.000102063
4.74711e-05
-2.01665e-05
-7.77538e-06
-8.7989e-06
4.50335e-05
-5.59213e-06
-5.7006e-05
-1.93107e-05
-3.39667e-05
4.75904e-05
2.16508e-05
-2.22091e-05
-2.47792e-05
-2.54152e-05
-5.89027e-06
-1.15664e-05
-4.1318e-05
-4.0236e-05
1.20595e-06
-4.48261e-05
2.04251e-05
3.38047e-06
-2.8291e-05
3.01646e-05
9.34803e-06
-6.713e-05
-4.05743e-05
7.09328e-05
-3.39553e-05
-2.67514e-05
2.17726e-05
1.56352e-05
1.44393e-05
-8.90205e-06
-1.19936e-05
1.44325e-05
8.70277e-05
-9.70322e-07
1.24229e-05
-5.59274e-05
-1.92778e-05
3.90809e-05
3.0701e-06
-4.05498e-05
7.56606e-06
6.7286e-05
3.94988e-05
-7.47539e-05
-3.48642e-05
2.46891e-05
-5.16156e-05
3.76767e-06
-4.08548e-05
-1.83191e-05
8.32832e-05
-3.53504e-05
-3.56366e-05
-9.10182e-06
-2.37038e-05
-7.61577e-05
-4.31731e-05
-3.44518e-05
3.03321e-05
-5.93201e-05
-4.43422e-05
-1.38487e-05
2.80144e-05
4.43459e-05
7.11204e-06
-4.17815e-07
-3.37961e-05
5.63173e-05
4.62108e-05
-7.51622e-05
0.00010683
-4.85462e-05
-1.38166e-05
-8.40984e-07
-1.4761e-05
-6.57014e-05
-1.55205e-05