# vtk DataFile Version 1.0
Net Charge Density
ASCII
DATASET STRUCTURED_POINTS
DIMENSIONS 256 128 1
ORIGIN 0 0 0
SPACING 0.15625 0.15625 1
POINT_DATA 32768
SCALARS rhonet float
LOOKUP_TABLE default
-3.89619e-06
-9.51276e-05
0.000144792
9.63216e-05
3.56839e-05
0.000120451
-0.000118445
9.1858e-05
0.000154216
2.28992e-05
-3.75605e-05
0.000108726
0.000103821
7.94462e-05
0.000109346
4.99606e-05
8.77433e-05
0.000140236
4.05881e-05
-6.79095e-05
-6.40727e-06
0.00014186
0.000144767
4.77829e-05
3.72675e-05
2.07424e-05
7.74214e-05
9.05887e-05
-1.35212e-05
-7.27425e-05
5.23031e-05
3.97239e-05
4.3669e-05
6.90082e-05
1.24415e-05
0.000171713
1.68075e-05
7.28727e-05
7.73579e-05
-5.53043e-06
2.29322e-05
6.8323e-06
0.000136404
9.39809e-05
2.09388e-05
1.86829e-05
-3.16135e-05
6.95542e-05
0.000116213
7.88723e-05
-1.20075e-05
2.49783e-05
8.34423e-05
0.000148995
3.55955e-05
1.75039e-05
0.000151011
-5.17475e-05
5.67827e-06
7.16955e-05
5.028e-05
6.06013e-05
7.16734e-06
8.01795e-05
8.22496e-05
-8.03831e-05
4.41822e-05
0.000136176
4.09955e-05
4.8284e-05
7.92335e-05
3.67117e-05
-2.69155e-05
4.96677e-05
-1.14786e-07
5.11552e-05
4.20858e-05
-3.83081e-05
9.21626e-05
0.000106614
8.71841e-05
2.54085e-05
7.49616e-05
0.000101106
4.54689e-05
-4.48001e-06
-1.66907e-05
6.70485e-05
0.000119669
-2.34878e-05
9.00028e-05
-1.47955e-05
-3.9053e-05
-6.21518e-06
-8.9918e-05
5.22712e-05
0.000157961
2.40979e-05
9.16881e-05
-2.49449e-05
0.000157723
9.09193e-05
-3.16952e-06
9.47252e-05
3.90388e-05
0.00013097
-2.58209e-07
-6.85493e-05
2.66265e-06
7.39999e-05
0.00013342
5.79271e-05
2.02988e-05
3.31153e-05
8.04211e-05
4.36595e-05
1.22664e-05
7.49694e-05
5.09599e-05
4.3228e-05
-3.98804e-05
-3.45637e-05
4.04444e-05
2.44898e-05
0.00011572
6.60871e-05
1.82551e-05
8.13096e-05
1.99638e-05
-1.881e-05
0.000119796
9.26164e-05
-2.24437e-06
3.77486e-05
2.03245e-05
6.79656e-06
4.461e-05
-3.1916e-05
4.68962e-05
-1.15022e-05
-4.98416e-05
2.3296e-05
2.09628e-05
0.000160761
9.8823e-05
2.06358e-06
0.000137836
1.15244e-05
-3.11243e-05
0.000132419
1.78264e-05
2.91311e-05
0.000108428
-8.34535e-06
3.45047e-05
4.32311e-05
5.74673e-06
3.42714e-05
-5.27687e-06
1.75422e-05
7.67783e-05
2.5008e-05
0.00011271
-2.20694e-05
3.2585e-05
2.55238e-05
5.84619e-05
-6.12726e-05
0.000105448
0.000137296
2.50288e-05
4.32238e-05
7.45823e-05
0.000111579
-2.02677e-05
-8.13382e-06
8.72926e-05
-8.23222e-05
1.15576e-05
3.31807e-05
8.87692e-05
-7.05998e-05
-3.1811e-05
5.65383e-06
1.0499e-05
7.98533e-05
4.14201e-05
7.20921e-05
0.000102553
7.46861e-05
2.48845e-05
0.000198125
8.16116e-05
-6.56995e-05
6.24203e-05
0.000201229
4.75217e-05
8.32754e-05
7.86672e-05
-1.63091e-05
5.95991e-05
0.00014917
4.39014e-05
3.83357e-05
-1.00755e-05
6.97712e-05
-5.98877e-05
5.34225e-05
6.86803e-05
8.57895e-05
6.8102e-05
0.000137439
0.000106096
-2.40525e-05
0.000111081
-0.000131281
0.000102691
9.90945e-05
-5.28722e-05
-3.79209e-05
8.69734e-05
0.000114877
0.000176992
3.40523e-05
7.95291e-05
5.67446e-05
-3.69134e-05
-1.51406e-05
8.69043e-05
6.86073e-05
6.22764e-06
4.16541e-05
2.36377e-05
2.60698e-05
0.000121307
-3.55693e-05
-2.05771e-05
2.7501e-05
5.94514e-05
8.97981e-06
1.84999e-05
8.66946e-05
-5.82675e-05
-3.0722e-07
2.65901e-05
-1.44099e-05
-2.21961e-05
-3.95465e-05
0.000128655
-4.29631e-06
2.10486e-05
-3.85132e-05
0.000102293
2.14383e-05
2.40523e-05
4.18616e-05
-0.000104899
2.47047e-05
-6.30285e-05
-2.51189e-05
-2.38866e-05
5.12259e-05
-2.60449e-05
-7.57643e-05
4.98933e-05
-6.6046e-05
-4.28996e-05
2.3342e-05
-5.99085e-05
-8.02731e-05
3.00305e-06
-4.24262e-05
4.66232e-06
1.08914e-05
-2.15753e-05
-4.06103e-06
-5.82077e-05
-6.7494e-05
-0.000106137
-1.792e-05
-2.00449e-05
-5.72714e-05
-2.52761e-05
7.73021e-06
-3.07411e-05
-8.53867e-05
-3.53886e-05
-8.36141e-06
2.74422e-05
-7.9568e-05
-6.6748e-05
2.31335e-05
-0.000103179
-3.37899e-05
1.98346e-05
-8.20331e-05
-5.15861e-05
-4.38425e-05
8.67189e-06
3.55991e-05
-2.47129e-05
4.87361e-06
-0.000112384
-3.15168e-05
3.88797e-05
-3.39411e-05
-6.5614e-05
-4.11927e-05
-3.17378e-05
2.98236e-05
-2.85322e-05
-3.54573e-05
-2.3487e-05
-0.00011611
1.48101e-05
-3.37932e-05
4.56308e-05
-5.12693e-05
-5.7285e-05
-3.73455e-05
-3.01473e-05
-6.05667e-05
-1.00287e-05
-7.96341e-05
-0.000109192
1.21051e-05
-4.39811e-05
9.0173e-06
-1.84361e-05
1.72418e-05
-5.13536e-05
-1.04343e-05
4.76104e-05
-2.54946e-05
5.74094e-05
2.15718e-07
-3.24119e-05
-5.04449e-05
-8.22555e-05
2.84828e-05
2.44658e-05
-6.16948e-05
-0.000158638
-4.1698e-05
-6.56582e-08
-1.69143e-05
8.77364e-06
5.33122e-05
3.15614e-06
-1.0794e-05
2.47145e-05
-5.96582e-06
3.43234e-05
-2.73122e-05
-6.84697e-06
-1.89513e-06
-4.36441e-05
-0.000106618
-3.96515e-05
-2.96778e-05
-3.55598e-05
1.64219e-05
-5.91241e-05
-4.27184e-05
-1.06636e-06
-5.99993e-06
5.43527e-05
-3.54237e-05
-7.13795e-05
-7.13194e-05
4.01706e-05
1.15483e-05
-5.23517e-05
-1.1154e-05
9.64536e-06
3.1899e-05
-8.57745e-05
1.39619e-05
-6.13788e-05
-7.74232e-06
-3.48625e-05
-1.67099e-05
-4.55655e-05
-6.96029e-05
1.70249e-05
-4.88111e-05
-2.0797e-05
1.59811e-05
-1.05533e-05
-2.35456e-05
-1.24411e-05
-3.31046e-05
-4.60122e-05
-1.33575e-05
-4.22461e-05
-8.32253e-06
-5.94466e-05
-7.82589e-05
8.69739e-06
-2.01981e-06
-8.3825e-05
1.05493e-05
-3.22358e-05
-4.36767e-05
-0.000117681
-8.72544e-06
-3.99575e-05
-3.83079e-05
-7.16741e-05
9.37132e-06
3.00047e-05
-1.70399e-05
-2.39989e-05
-1.85531e-06
-5.11225e-05
-2.02559e-05
-8.13488e-05
-6.40944e-05
3.62433e-05
-8.02712e-05
-7.56339e-06
2.37456e-05
2.21167e-05
-5.27812e-05
-2.42481e-06
3.60711e-05
-9.46557e-05
1.02376e-05
-2.2148e-05
3.97034e-05
-4.13514e-05
-2.55476e-05
-5.70121e-06
3.04059e-05
-6.90699e-05
-4.7768e-05
3.67502e-05
-4.79654e-06
2.05869e-06
-4.86561e-05
-0.000107547
-6.60247e-05
-2.6601e-05
-2.24791e-05
-9.33011e-06
-1.88578e-05
-0.000101449
6.32275e-06
3.69591e-05
4.61063e-06
-1.08491e-05
-2.3655e-05
-8.50839e-05
-3.90906e-05
4.81107e-05
-6.97805e-06
-7.51892e-05
-6.46281e-05
-4.37902e-05
3.07558e-05
-5.53514e-05
1.83075e-06
-5.12165e-05
9.71665e-05
1.17972e-05
-4.14061e-05
-5.22407e-05
-4.83999e-05
-4.73991e-05
3.21252e-05
-3.50822e-05
-7.29861e-05
1.6971e-06
-2.53873e-05
-1.98885e-05
4.50551e-06
-1.73204e-05
7.05675e-05
5.70887e-05
-6.70664e-05
-3.48988e-05
-2.73383e-05
-7.02051e-05
-2.06067e-05
2.42679e-05
8.58863e-05
-8.70342e-05
6.93556e-06
-4.34534e-05
-3.62699e-05
6.90323e-05
3.75875e-05
-6.27588e-05
-4.99166e-06
2.55423e-05
-5.11219e-05
2.26251e-05
-1.34832e-05
-4.80213e-05
-1.98239e-05
3.05485e-06
3.73246e-05
3.42681e-05
-1.23481e-05
-2.31676e-05
-0.000132199
-1.66474e-07
-7.60611e-06
5.12578e-05
-7.35302e-06
-7.36325e-05
5.01738e-06
-3.30427e-05
-1.99047e-06
5.00249e-05
-7.79773e-06
-2.33897e-05
-8.48062e-06
1.05414e-06
-1.92302e-05
7.13238e-05
-5.15231e-05
7.82264e-06
3.11626e-05
6.5344e-05
-4.67905e-05
-2.9064e-05
-1.14904e-05
-2.49577e-05
-9.34285e-05
-2.04823e-05
3.51595e-05
4.88625e-05
3.64081e-05
-1.64533e-05
3.777e-05
6.1458e-05
-4.75247e-05
4.48454e-05
4.40083e-05
9.82266e-06
-5.1087e-05
1.23075e-05
2.34431e-05
7.043e-05
4.96688e-05
-3.57144e-05
2.25296e-05
5.27373e-06
-2.51164e-05
4.80089e-05
3.4039e-05
2.11628e-05
-2.8919e-05
-7.34258e-05
2.16748e-05
3.48731e-05
1.42131e-06
-4.63348e-05
1.81759e-06
-1.65709e-05
5.22444e-05
1.92712e-05
-4.25102e-05
-9.05938e-05
6.88434e-06
2.94283e-05
9.43267e-06
3.90772e-05
-4.01762e-05
2.79773e-05
-3.30709e-05
9.02758e-05
1.8705e-05
2.19356e-05
-2.38941e-05
3.89218e-05
7.95064e-05
-1.43005e-06
-1.07863e-05
-4.3123e-05
-5.63418e-05
3.65557e-05
5.69131e-06
-2.97666e-05
3.18506e-05
-3.75102e-05
-1.9769e-05
6.36958e-05
5.06428e-05
-4.80583e-05
-4.18767e-05
-9.31264e-06
-2.63553e-05
-1.33652e-05
5.09453e-05
7.41067e-05
-1.38803e-05
-5.52133e-05
-6.02391e-05
2.25465e-05
4.01656e-05
-3.56471e-05
4.60863e-05
6.04026e-05
1.00416e-05
-2.72852e-05
-6.84019e-05
1.03851e-05
-3.90657e-05
-6.67314e-05
1.89329e-05
-3.86637e-05
-7.26089e-05
1.5535e-05
3.44666e-05
-9.18168e-06
-2.52386e-05
3.49984e-05
6.71941e-05
-7.81415e-06
-2.3485e-05
1.9087e-05
-3.45561e-05
-3.24682e-06
3.1763e-05
-4.3362e-05
-4.44563e-05
-1.29164e-05
6.19065e-05
-1.54726e-05
-1.9243e-05
-9.33884e-07
1.07796e-05
-2.6786e-05
6.43285e-05
6.29225e-07
3.16113e-05
-3.45438e-05
-2.0211e-05
3.29816e-05
-8.92975e-06
-5.33783e-05
-6.58386e-05
-1.97738e-05
2.38442e-06
3.65478e-05
8.36758e-06
-1.8779e-06
1.48285e-05
-2.75737e-05
4.24775e-05
2.79527e-05
9.69109e-05
6.65827e-05
1.94262e-05
1.45666e-05
-1.36634e-05
5.9018e-05
5.77688e-05
-3.53302e-05
8.65558e-05
-1.88486e-05
-2.1022e-05
-5.39365e-05
1.12335e-05
-1.22988e-05
7.03166e-05
-1.07867e-05
6.14859e-06
5.77933e-05
3.47514e-05
-3.56401e-05
-5.85651e-06
4.38263e-05
2.99948e-05
1.48884e-05
3.0942e-06
-6.2997e-05
1.44142e-05
-9.34469e-05
4.10874e-05
-3.34152e-05
-7.2972e-05
6.7862e-06
-4.31377e-05
3.26062e-05
-5.40692e-05
-3.51892e-05
-7.38096e-06
-3.46784e-05
7.78073e-06
5.28587e-05
1.66987e-05
-1.61515e-06
7.61891e-05
-2.89606e-06
5.27896e-05
3.30984e-05
2.69061e-05
3.20119e-05
-4.14015e-05
-7.91212e-05
6.70459e-06
-3.71058e-05
3.38187e-07
3.12873e-05
2.55897e-05
4.6243e-05
-7.34429e-06
3.8557e-05
-1.8249e-05
8.60399e-05
-3.51757e-05
-2.42109e-05
-2.44782e-05
3.96876e-05
3.96362e-05
-5.59597e-06
-1.59817e-05
5.26485e-05
-3.12829e-05
-9.51346e-06
1.32092e-05
3.03073e-05
4.0144e-05
-6.21295e-05
6.55721e-06
-4.02804e-05
7.68157e-05
-2.30569e-05
2.42773e-06
-2.36243e-05
-7.65745e-06
1.056e-06
-7.58461e-05
1.8905e-05
4.24926e-05
2.73366e-06
-4.68805e-05
-0.000111355
2.3297e-05
1.92822e-05
1.66928e-06
4.1142e-05
-1.26258e-05
3.11481e-06
-2.15392e-05
-7.41903e-05
3.57792e-05
1.81665e-05
-4.43204e-05
1.38057e-05
2.49422e-05
-1.40064e-05
-5.45275e-05
-1.5968e-05
4.84831e-05
-4.50003e-06
-0.000139603
5.79742e-05
3.08062e-05
0.000100899
-3.72757e-05
3.82718e-05
1.96715e-05
-2.19459e-05
-3.16992e-05
-3.15021e-05
5.79791e-05
8.84754e-05
-9.06747e-06
-5.9989e-05
9.218e-06
8.46409e-06
-1.82772e-08
-2.0785e-05
-3.90379e-05
0.000130275
-3.43212e-05
-4.70519e-05
5.3711e-05
-2.79618e-06
2.82307e-06
-3.79195e-05
-6.05411e-05
4.75429e-05
4.84362e-05
-1.7537e-05
3.74634e-05
-5.19098e-05
4.18172e-05
3.39494e-05
-6.99731e-05
2.73664e-05
3.88062e-05
1.67809e-05
-5.26778e-05
6.28695e-05
-2.19629e-05
-4.31018e-05
-7.40367e-06
-2.66788e-05
4.25461e-05
3.64962e-06
2.75731e-05
-4.73878e-05
-6.43777e-06
3.0309e-05
-2.26301e-05
-8.19345e-05
-4.95824e-05
1.3624e-05
3.3637e-05
4.5352e-05
-3.78169e-05
6.72049e-05
-2.02062e-05
-6.23036e-05
4.74696e-05
4.62761e-05
1.24056e-05
3.82883e-05
2.15035e-05
5.87143e-05
-6.50001e-05
-4.25673e-05
-1.34124e-05
4.3906e-05
4.78702e-05
-2.23205e-05
-6.05178e-05
1.98302e-06
-2.43774e-06
-3.00116e-05
1.4892e-05
2.92048e-05
7.28866e-05
7.06632e-05
-3.58251e-05
-0.000140627
2.58452e-05
1.20397e-06
-2.88259e-05
-4.69697e-05
5.72435e-05
3.12586e-05
1.75569e-05
-0.000107817
-1.58467e-05
1.13323e-05
3.99526e-05
3.28138e-05
-4.30105e-05
3.20361e-05
3.74886e-05
-3.91946e-05
2.83306e-05
3.71941e-05
-1.37147e-05
3.56369e-05
-5.44162e-05
8.3045e-05
3.0324e-05
-1.94268e-05
-2.67288e-05
6.84275e-05
4.12178e-05
-2.91595e-05
3.35356e-05
3.9214e-05
3.68368e-05
-3.48364e-05
-2.81517e-05
1.41672e-05
3.52941e-05
-7.15668e-05
-2.16159e-05
4.60055e-05
3.64993e-05
2.31862e-05
-3.12356e-05
-7.13489e-05
2.25485e-05
-3.5273e-05
7.69857e-05
-4.16432e-05
-1.37856e-05
7.45147e-05
-5.40668e-05
4.00422e-06
-1.77845e-05
-5.58047e-05
2.01229e-05
5.95953e-06
5.0582e-05
6.31155e-05
-6.58255e-05
8.14187e-05
-4.3224e-05
-2.44332e-05
2.67199e-05
4.3941e-06
9.56794e-06
7.65582e-06
4.39119e-06
-4.22164e-05
2.17032e-05
1.01277e-05
-1.56356e-05
-7.8814e-05
-2.79719e-05
-7.33125e-06
2.6283e-05
6.22822e-06
2.38391e-05
-8.04127e-06
5.26157e-05
3.00952e-05
-3.07955e-05
-8.68586e-05
1.14741e-05
3.87341e-05
1.1161e-05
-2.8562e-05
-9.12498e-06
-2.48058e-06
2.21189e-05
-3.22936e-06
2.53436e-05
2.25472e-05
3.20969e-05
-2.08738e-05
-3.06312e-06
6.05593e-06
-3.41341e-06
3.4966e-05
-2.44877e-05
5.3473e-05
1.96628e-05
1.27894e-05
-1.15684e-05
2.92527e-05
2.87173e-06
3.39588e-05
-1.87164e-05
-2.88629e-06
-6.9042e-05
2.46677e-05
-5.04032e-06
-1.26841e-05
2.05984e-05
-2.63397e-05
-2.66195e-06
-3.02467e-05
-7.38933e-05
-1.16549e-05
0.000124287
-9.67173e-05
2.30565e-05
4.08876e-05
1.12087e-05
1.897e-05
2.29746e-05
-6.50398e-05
-1.85564e-05
-3.58941e-05
9.88867e-06
-2.25084e-05
-0.000114619
5.06443e-05
-0.000120174
-5.21552e-05
0.000129995
-2.8554e-05
-3.29324e-05
1.3981e-05
-3.0885e-06
-4.58478e-06
-6.87179e-05
5.01052e-07
2.54067e-05
-3.06814e-05
-4.83703e-05
-2.09839e-05
3.77463e-05
3.99083e-05
1.09902e-05
-3.37758e-05
2.43069e-05
4.91921e-05
4.58605e-05
-7.13925e-05
-6.57422e-05
-4.48683e-05
5.14664e-05
2.45136e-06
-1.54763e-06
-6.96706e-05
3.42261e-07
-1.04235e-05
6.89423e-06
-2.29044e-05
-2.35613e-06
-3.06221e-05
3.27416e-05
-3.22668e-06
-1.03379e-05
-2.52563e-05
2.84623e-05
9.52231e-05
-3.02619e-05
3.21713e-05
4.4381e-05
-4.5408e-05
-0.000101102
-3.30773e-05
0.00011101
6.25439e-05
-5.28286e-05
-0.000107186
-1.18127e-05
6.8567e-05
3.46112e-05
-5.40469e-05
-5.21376e-05
4.75179e-05
-4.06372e-05
-0.000119436
6.12035e-05
-1.81563e-05
-3.11723e-05
0.000105493
-4.54735e-05
-9.29437e-05
-5.38453e-05
9.50496e-06
-5.54988e-05
1.67225e-05
4.2821e-06
-7.23692e-05
6.52461e-06
4.59249e-05
6.7777e-06
-2.06707e-06
5.32225e-05
2.83385e-05
-3.75984e-05
-4.85502e-05
0.000104193
-1.62807e-05
-5.72763e-06
-2.96994e-05
-2.67313e-06
-4.5812e-05
8.228e-06
-1.31112e-05
-4.38878e-05
-3.36708e-05
-5.49541e-05
4.80603e-05
-3.43903e-05
5.50933e-05
-3.26766e-05
-2.49939e-05
-9.60939e-06
3.26964e-05
-4.34387e-05
8.21741e-05
3.99072e-06
1.01075e-05
-2.64168e-05
-1.68616e-06
5.18317e-05
-5.05239e-05
7.6535e-05
-2.69972e-05
-2.84479e-05
5.25359e-06
1.91302e-05
5.75269e-05
-1.55084e-05
1.41474e-05
1.548e-05
9.67539e-05
-2.60584e-05
2.79688e-06
-6.86491e-05
-4.3636e-06
5.35604e-06
-6.23288e-07
-1.12271e-05
2.76115e-05
-7.06455e-05
2.38874e-05
3.64648e-05
-5.8614e-06
-1.4732e-05
5.85362e-05
-1.46334e-06
5.05825e-07
-8.36432e-06
-6.68827e-05
-7.45908e-06
-5.66776e-05
5.49136e-05
-1.5568e-05
-6.51173e-05
1.93971e-05
-2.50088e-05
1.49549e-05
4.445e-05
-8.87853e-06
-5.64922e-05
-7.07046e-05
-8.34162e-06
-2.96299e-05
-2.15345e-06
-1.8321e-05
-1.8928e-06
-0.000102778
8.74791e-06
3.24816e-05
3.07957e-05
-0.000103662
-3.61558e-05
2.02428e-05
8.39111e-05
4.75335e-06
-1.31456e-05
3.197e-05
7.14092e-07
-3.71368e-05
-7.51381e-05
-6.92117e-05
-2.21329e-06
-7.09704e-05
1.3666e-06
-4.37516e-05
5.21007e-05
-3.20332e-05
-2.11229e-05
9.38238e-06
-1.06078e-06
4.85114e-06
-2.59298e-05
5.7298e-05
-2.03837e-05
4.02203e-05
1.71231e-05
-4.36107e-05
4.79119e-06
-4.09905e-05
-3.49013e-07
2.3094e-05
-3.31621e-05
1.34482e-05
1.23587e-05
-2.61033e-05
-4.6381e-05
1.17687e-05
-4.40208e-05
0.000100772
4.16166e-05
5.95753e-05
5.72763e-06
3.63565e-06
3.72173e-05
-2.83866e-05
-2.65322e-05
-3.87034e-05
-3.32444e-05
-2.94496e-06
-4.83426e-06
-7.42384e-05
-9.21182e-05
-4.12926e-05
9.36041e-05
1.79685e-05
2.46144e-05
5.07904e-05
-3.90909e-05
-4.86935e-05
-6.07769e-05
2.91873e-05
-7.01526e-05
2.39776e-05
5.70999e-05
1.4381e-05
-8.54448e-05
6.48923e-05
5.64114e-06
1.15007e-05
-0.000120717
5.33732e-05
7.36073e-05
5.39003e-06
1.38732e-05
1.18418e-05
-9.6513e-06
3.66945e-05
-3.03434e-05
4.7181e-05
6.17246e-05
-4.68094e-06
-4.04322e-05
-2.98402e-05
4.83415e-06
-1.19209e-06
4.36947e-05
-1.84902e-06
-1.1377e-05
-1.70621e-05
7.82479e-05
-4.58409e-06
1.79142e-05
-3.62858e-05
-7.78635e-05
7.38342e-05
-9.19306e-05
-5.20761e-06
2.09282e-05
2.3063e-06
7.05891e-05
3.83813e-05
7.42148e-06
5.50149e-05
-1.01447e-05
4.60939e-05
-1.68374e-05
-5.88754e-05
-4.91899e-05
5.14223e-05
5.45876e-05
-1.98531e-05
5.81009e-05
3.01998e-05
1.388e-05
2.24967e-05
6.25559e-05
6.90192e-06
-8.80089e-05
-1.3425e-05
-5.00807e-06
4.86999e-05
5.99251e-05
6.30917e-05
1.42679e-06
2.14425e-05
-2.6638e-05
-9.90462e-06
-6.22045e-05
-1.60297e-05
3.2595e-05
-3.85356e-05
-1.90419e-05
5.31543e-05
-2.28174e-05
1.54101e-05
-4.23559e-05
-5.65313e-07
-5.11478e-05
-1.07911e-05
-0.000114607
2.06343e-05
1.91703e-05
7.28539e-05
2.73276e-05
-4.94907e-05
5.05785e-05
5.27867e-05
6.41991e-05
-7.98935e-06
4.43975e-05
-4.86516e-05
-2.58869e-05
-3.12884e-05
9.76645e-05
-4.4602e-05
-4.87098e-05
2.70449e-05
-5.04587e-05
1.36549e-05
-9.0184e-05
-0.000131355
6.04789e-05
5.67492e-05
-1.70097e-05
2.47736e-05
-9.10857e-06
5.167e-05
-8.06584e-05
3.82909e-05
3.78336e-05
1.59069e-05
-7.97585e-06
-6.65581e-06
3.57424e-05
3.13778e-05
-9.3261e-05
-4.72961e-05
-9.38078e-05
-4.97693e-05
6.84744e-05
-3.54394e-05
9.14477e-06
-3.66225e-05
3.87208e-05
1.69342e-05
4.47611e-05
-5.40488e-05
2.94936e-05
6.61316e-05
1.22411e-05
-6.64289e-05
1.13319e-06
1.48166e-05
-1.36937e-05
6.08948e-05
-9.08854e-07
7.89304e-05
9.09623e-06
5.26158e-05
-9.66368e-05
3.41128e-05
6.60599e-06
-1.27819e-05
-4.43453e-05
-2.06705e-05
3.15066e-06
-9.30391e-07
-6.3061e-05
-0.000100799
-4.15866e-05
-9.1508e-05
-4.81859e-05
5.62922e-05
-1.52454e-05
-5.22907e-05
-2.412e-05
-1.08292e-05
-4.57693e-05
-4.23093e-05
1.19053e-05
2.83613e-05
-1.41365e-05
-5.28248e-05
-6.13482e-05
1.77319e-05
1.07334e-05
-2.08279e-05
5.96307e-05
1.7907e-06
2.512e-05
-2.36363e-05
5.88676e-05
3.18949e-05
4.76101e-05
-7.31898e-05
7.22464e-05
-0.000100921
-6.24033e-06
6.49309e-05
8.4897e-06
3.23065e-05
-3.30748e-06
-4.32197e-05
2.3786e-06
1.99964e-05
-1.27292e-05
9.59309e-06
3.61399e-05
2.75429e-05
6.92138e-05
-2.724e-06
-6.32242e-05
-6.1458e-06
-7.61147e-06
-1.02113e-05
4.45026e-05
5.20179e-06
2.67309e-05
-6.63009e-06
-4.79841e-06
-2.948e-05
1.43554e-05
5.68922e-06
6.79196e-05
9.01241e-06
3.43913e-05
1.84249e-05
1.29041e-05
-4.46523e-05
3.45942e-05
3.36551e-05
1.93832e-06
-1.88095e-05
4.46877e-05
-5.23899e-05
6.75363e-05
7.74652e-05
6.37153e-06
8.13848e-05
-3.181e-05
2.20673e-05
-1.73564e-05
-2.878e-05
-6.86571e-05
1.1924e-05
2.47916e-05
1.23706e-05
-3.48672e-05
2.16777e-05
-2.2075e-05
-3.52482e-06
1.2335e-05
1.70898e-06
2.97126e-05
-6.88566e-05
-1.3374e-05
9.18959e-05
-3.43515e-05
1.47279e-05
-1.23626e-05
4.94573e-05
2.42068e-05
-4.44686e-05
5.0594e-05
0.000106778
9.66934e-05
6.5251e-05
8.90461e-07
-7.20657e-06
-1.14561e-05
6.66901e-05
-5.44835e-06
4.0179e-05
-2.33975e-05
4.17555e-05
-3.41272e-05
-2.13983e-05
6.28107e-06
-2.62642e-05
3.58208e-05
-8.93138e-05
4.69462e-05
-3.57551e-05
3.30253e-05
2.34644e-05
-9.97118e-05
2.21345e-05
3.5701e-05
-1.87464e-05
2.13269e-05
-6.78226e-05
2.71625e-05
-5.16976e-05
5.68141e-05
4.88437e-05
-1.74809e-05
3.80417e-05
4.54172e-05
1.17875e-05
-8.38004e-06
2.07492e-05
-2.0564e-05
5.28251e-05
-7.57059e-05
-4.26276e-05
-7.67293e-06
2.04983e-05
-1.54353e-05
-3.1233e-05
1.17403e-05
6.21643e-05
4.88083e-05
4.33577e-06
-0.00012757
-5.02231e-05
-6.86672e-05
-6.60997e-05
3.09137e-05
7.61511e-05
-7.01363e-05
-7.02997e-06
9.28552e-06
4.82403e-05
3.84008e-06
8.47294e-06
-6.75761e-05
-1.85838e-05
1.2173e-05
-8.66805e-06
-3.19524e-05
-1.42839e-05
3.18396e-06
7.33021e-06
1.82412e-05
2.56515e-05
-6.78839e-05
-4.71366e-06
3.49283e-05
-5.05326e-05
1.07943e-05
-1.50142e-05
-1.63047e-05
-2.95385e-05
9.53889e-05
2.63904e-05
-1.76687e-05
-2.15027e-05
-1.27988e-05
8.03336e-06
-1.358e-05
2.63907e-05
-7.18585e-06
-1.90844e-05
2.17276e-05
5.39321e-05
-9.03434e-05
5.79047e-05
-1.44776e-05
-1.46057e-05
-3.83232e-05
-4.54393e-05
2.61624e-05
5.7482e-05
2.07166e-05
1.80583e-05
2.61937e-05
-7.22159e-06
-2.65965e-05
2.38708e-05
-3.81791e-05
-3.29989e-05
2.86616e-05
4.19584e-06
5.3414e-05
-1.2902e-05
-4.54555e-06
9.10495e-05
1.63331e-05
1.69148e-05
-4.63275e-05
3.55737e-05
-3.91712e-05
2.29456e-05
1.72222e-05
3.08687e-06
6.80584e-05
6.72801e-05
-1.70229e-05
-7.54721e-06
4.55867e-05
-1.23881e-05
-6.61239e-06
0.000122596
3.26278e-05
1.82134e-05
2.4949e-05
-5.22545e-05
-2.22387e-05
-5.70172e-05
1.30432e-06
7.69051e-06
2.41788e-05
1.07718e-05
-5.20675e-05
1.76704e-05
6.44936e-05
-6.11887e-05
5.44069e-05
-4.49326e-05
-7.052e-05
6.23078e-06
3.27918e-05
4.7088e-05
1.32702e-06
1.32953e-05
-7.78603e-05
-2.8183e-05
-6.89272e-06
0.000112602
3.6848e-05
-3.34247e-05
4.85631e-05
3.18354e-05
1.14889e-05
6.94901e-05
0.000133271
-7.38587e-05
-4.20365e-05
-1.68966e-05
2.04109e-05
8.13277e-06
-1.95553e-05
3.47551e-05
5.05908e-05
-6.30392e-05
-4.22689e-05
1.79621e-05
5.70349e-05
-6.67642e-07
2.83984e-05
-3.47795e-05
-8.23163e-05
-3.16935e-05
-5.5102e-05
-1.6948e-05
6.4399e-05
-5.5777e-05
5.25205e-05
-0.000112341
-7.10655e-05
-1.52234e-05
-1.60271e-05
-3.59302e-05
5.28328e-05
4.40276e-05
-4.75533e-06
-6.05785e-05
-2.03254e-05
1.72131e-05
2.40901e-05
-2.15006e-05
-3.80281e-05
1.84214e-05
-5.22973e-05
-1.48048e-05
-9.04258e-05
-1.86139e-05
-1.40988e-05
0.000121307
-2.54706e-05
5.25204e-05
3.79465e-05
3.11933e-05
-3.85306e-05
-5.10272e-06
-4.49653e-05
2.62947e-05
1.12428e-05
-1.86057e-05
1.74427e-05
-3.76218e-05
8.71101e-06
-3.17956e-05
7.14646e-05
-7.47016e-05
0.000101809
5.19648e-05
3.18052e-05
1.94159e-05
4.63661e-05
-3.00503e-06
1.62394e-05
7.99992e-05
3.67546e-06
-1.37992e-05
-5.21091e-05
-5.62187e-05
2.68223e-05
-3.78019e-05
-4.78232e-05
2.88635e-05
-2.6899e-05
-1.16552e-05
-5.02807e-05
3.10757e-05
-2.006e-05
3.81095e-05
-8.71746e-05
-4.69056e-05
1.67198e-05
4.92444e-05
9.12813e-06
1.42585e-06
-6.69425e-05
-7.27301e-05
-1.43619e-05
-9.74524e-06
-1.56974e-05
2.67378e-05
-9.21226e-05
-5.88652e-05
-1.25878e-05
5.10606e-05
-8.97491e-05
7.86013e-05
1.3089e-05
1.51689e-05
-0.000114672
-4.1972e-05
1.0648e-05
8.8416e-05
-6.75349e-06
-6.9309e-06
1.08092e-05
-9.15194e-05
-1.49586e-05
1.07785e-05
5.18085e-05
-3.28281e-05
4.25944e-05
9.43081e-06
7.85571e-07
4.03621e-05
-3.83449e-06
2.66725e-05
-2.21872e-05
6.11763e-07
2.1637e-06
1.83093e-05
-2.01636e-05
-7.52349e-05
-8.20146e-05
-4.08828e-05
3.06882e-05
3.11448e-05
-1.76034e-05
-1.14893e-05
3.87507e-05
9.27423e-06
1.17534e-05
-4.44878e-05
-5.27479e-05
-4.26524e-05
9.60723e-05
-3.91072e-05
-6.17565e-05
-4.5125e-05
4.72018e-06
-4.15789e-05
-1.74751e-06
2.57663e-05
4.81135e-05
-3.50768e-05
2.89145e-05
3.42637e-05
2.19489e-05
-2.03152e-05
-2.84292e-05
2.95845e-05
6.23246e-05
1.81483e-05
-1.77093e-05
-4.2289e-05
-3.51854e-06
6.32221e-05
3.54648e-06
7.63207e-06
-5.29352e-06
1.01696e-05
2.74982e-05
2.91367e-05
-2.60747e-05
-5.97402e-05
8.67881e-05
3.29317e-05
-1.45725e-05
-1.42365e-05
5.72903e-05
3.84299e-06
9.81889e-05
0.000121366
-2.8594e-05
2.49981e-05
7.87142e-06
-1.86715e-05
-1.70158e-05
-7.3238e-05
0.00011208
-1.25972e-05
-6.01772e-05
7.86269e-06
3.08843e-05
9.78378e-06
7.8408e-06
1.71372e-05
4.85452e-08
-2.67229e-05
-2.56809e-05
-4.13371e-05
-4.55838e-05
-1.76241e-05
-7.7663e-06
-4.82695e-05
7.13979e-05
1.64241e-05
3.01735e-05
-3.19593e-05
1.3984e-05
-1.39403e-05
-1.55895e-05
4.47675e-06
-1.6585e-05
8.27649e-05
5.56023e-05
5.67234e-06
3.54116e-05
2.86219e-06
-1.63056e-05
2.07494e-05
9.63232e-06
-1.45014e-05
-4.88879e-05
-4.07478e-05
-9.69181e-06
4.12577e-05
-2.15799e-05
-3.41524e-05
5.64961e-05
-1.37319e-05
-5.04196e-05
3.84738e-05
-2.33616e-05
-1.19628e-06
-5.9447e-05
5.95255e-06
6.40081e-05
-7.39726e-05
-2.23718e-05
-4.28886e-06
-7.43167e-05
-1.58089e-05
5.60068e-05
-2.41008e-05
5.20139e-05
4.58725e-05
-3.16433e-05
0.000122278
2.89968e-05
1.20706e-05
-2.74092e-05
-3.44682e-05
-3.20205e-05
5.98466e-05
4.27909e-05
-2.54274e-05
-1.62855e-05
4.25265e-05
4.55983e-05
-7.0805e-05
-4.53843e-05
-1.75915e-05
6.00135e-05
3.70811e-05
4.36986e-05
-7.64523e-06
2.1755e-05
1.48425e-05
1.47808e-05
3.49517e-05
1.44984e-05
-7.17343e-05
5.908e-05
3.9353e-05
-1.62116e-05
4.74527e-05
-1.84557e-05
-3.84236e-05
8.46091e-05
5.78988e-05
5.29939e-05
-2.8294e-05
-1.40261e-05
-3.38128e-06
6.5687e-05
1.70163e-05
1.81663e-05
-1.45184e-05
-3.22155e-05
8.30158e-06
5.70643e-05
3.72087e-05
6.89619e-05
3.92862e-05
3.0785e-05
-1.59341e-05
4.17496e-05
8.47259e-06
-3.21822e-05
-1.07555e-05
-1.45922e-05
5.39314e-05
1.21893e-05
2.11234e-05
-2.64752e-05
1.12985e-05
-2.39081e-05
-1.4451e-05
1.09989e-05
-7.7337e-06
4.69049e-06
1.68594e-05
6.67056e-05
1.57993e-05
-0.00010758
-8.24985e-05
6.52287e-06
-5.85073e-05
5.1733e-05
1.84865e-05
1.66781e-05
-7.07678e-05
5.68561e-06
-1.86225e-05
-4.33438e-05
5.83277e-05
-4.15361e-05
-7.76737e-05
-1.33209e-05
-3.7474e-05
-1.10047e-06
5.06311e-05
3.43445e-05
5.21395e-05
2.95314e-05
4.71439e-05
-2.02379e-05
0.000134812
5.5166e-05
-3.82715e-05
-1.12214e-05
0.000111733
1.12853e-06
-1.38339e-05
-2.07321e-05
-1.05335e-05
5.75068e-06
2.51082e-05
-6.47171e-05
1.22213e-06
0.00011825
2.02312e-05
-6.96783e-05
-8.3458e-05
9.06889e-05
4.29543e-05
-6.09932e-05
-2.33646e-06
4.52495e-06
-2.48612e-05
-7.49838e-05
-6.30121e-06
3.39794e-05
6.28873e-05
-2.65858e-06
-2.9754e-05
-6.67733e-05
-1.08313e-05
7.42287e-06
3.03178e-05
-1.26923e-05
1.26484e-05
-3.24742e-05
-1.54034e-05
4.65964e-05
-6.06524e-07
-7.33233e-05
-3.61167e-05
3.19346e-05
5.07123e-05
5.52048e-05
-3.86606e-05
-2.71023e-05
-1.73273e-06
4.0044e-05
-1.28833e-05
1.15227e-05
2.75382e-05
1.51005e-05
2.02357e-05
3.27817e-05
-0.000103584
-2.37206e-05
5.62997e-05
-3.56047e-05
-8.56414e-05
0.000101617
-2.90696e-05
2.15801e-05
-5.19502e-05
6.29376e-06
-5.95592e-05
3.80212e-06
-4.01156e-05
2.21785e-05
-9.73709e-06
6.35826e-05
-2.76121e-05
-2.54388e-05
9.06738e-05
-5.55881e-05
-3.51444e-05
1.4781e-05
-2.3094e-05
3.46845e-05
-4.10142e-05
-1.09319e-05
2.98417e-05
3.45649e-05
-4.78456e-05
-5.78745e-05
-3.72985e-05
3.58623e-05
-1.02351e-05
-1.76756e-05
3.83463e-05
4.54951e-06
-3.07261e-05
-6.31758e-05
6.1912e-06
-5.68889e-05
0.000120349
-0.000117728
-6.80867e-05
1.01862e-05
-1.02154e-05
2.82166e-05
-1.96025e-05
-6.25511e-06
3.50754e-05
9.93232e-06
-5.96483e-05
5.40579e-05
-2.97577e-05
-7.25966e-07
-9.39064e-06
-2.64808e-05
5.89001e-05
9.35844e-05
7.9501e-05
-1.68921e-05
-6.82939e-05
-7.77042e-05
4.75624e-05
-1.31701e-06
1.1744e-05
5.1631e-05
-6.31503e-05
2.2143e-05
3.45723e-05
-3.89626e-05
4.92728e-05
9.85328e-06
-2.73692e-05
-7.18008e-05
-2.20782e-06
9.41264e-06
5.68596e-05
-2.014e-05
-8.62265e-06
7.08923e-06
9.57516e-07
-2.91975e-05
-3.67719e-05
9.87435e-07
-7.08364e-06
-7.77075e-05
4.07121e-05
2.28047e-05
-2.33538e-05
-2.82729e-05
6.35523e-06
-3.10617e-05
-2.37781e-05
5.87645e-05
3.77754e-05
-8.88545e-05
1.88744e-05
2.82153e-05
2.42068e-05
-1.97259e-05
3.13721e-05
2.67725e-05
-2.78917e-05
-1.14411e-05
4.398e-05
-1.84723e-05
6.28969e-06
-9.41684e-06
3.67082e-05
-1.65388e-05
-2.21909e-05
-3.26347e-05
2.11541e-05
-9.05294e-05
-2.25262e-05
7.17747e-06
-1.67803e-05
-5.12946e-05
-4.1526e-05
3.02577e-05
1.87582e-05
1.34517e-05
6.79974e-05
0.000103678
-2.68703e-05
-5.6222e-05
-7.36816e-06
-8.72917e-06
-8.2209e-06
-0.000119191
3.07669e-05
9.97083e-05
7.93551e-05
2.35237e-05
2.89571e-06
3.23571e-05
6.61926e-06
-1.27406e-05
-1.12368e-05
3.50201e-06
6.08943e-05
-6.73416e-06
5.99329e-05
-9.10833e-06
-4.93437e-05
-1.25013e-05
-1.79211e-05
3.41784e-05
-3.37976e-05
7.39458e-06
5.94528e-05
0.000102924
1.5897e-05
2.07429e-06
6.60839e-05
-5.4952e-05
-6.42205e-05
4.83706e-06
5.86059e-05
-3.53616e-05
-0.000113618
-3.21864e-05
8.25245e-06
3.03726e-05
4.09468e-06
1.25874e-05
-2.57917e-05
4.02995e-06
-1.99423e-05
-0.000115459
-8.30274e-06
2.34323e-05
1.67683e-05
-9.89973e-06
-1.77937e-05
3.41062e-05
5.38381e-05
-8.89529e-07
-3.26859e-05
-1.44824e-05
1.08391e-05
2.86296e-05
1.41946e-05
-1.13216e-05
4.36339e-05
-9.70054e-06
4.36599e-05
-6.25977e-06
-6.49593e-05
8.33399e-05
7.37328e-06
-2.3359e-05
-5.29963e-05
8.21892e-06
-7.67079e-05
-5.47341e-05
1.69984e-05
-2.35278e-05
6.93034e-05
-5.89252e-05
-1.58963e-05
-3.79654e-06
-4.36556e-05
1.74949e-06
6.90972e-06
-1.56334e-05
-1.26807e-05
-6.31367e-06
-2.87469e-05
6.3584e-05
-1.27367e-05
2.98871e-05
-1.94588e-05
0.00010666
-6.87316e-05
2.64263e-06
7.97824e-05
-7.28981e-05
-2.11624e-05
-1.82888e-06
-5.65476e-06
-3.07193e-05
-1.66474e-07
6.13093e-05
-4.53603e-05
-3.93786e-06
2.74237e-05
5.10006e-05
6.30133e-06
2.15233e-05
-5.93145e-05
-4.52384e-05
-4.56916e-05
-4.39743e-05
-2.38917e-05
-5.03428e-05
-2.24272e-05
-6.28913e-05
1.1195e-05
0.000117078
1.08847e-05
1.6035e-06
7.11496e-06
-1.24815e-05
-9.79607e-05
1.17274e-05
-2.43352e-05
-6.52869e-05
-4.57341e-05
9.77496e-05
-2.84509e-05
2.46858e-05
2.8971e-05
-3.39508e-05
9.19257e-05
-5.06381e-05
-3.13994e-05
4.17815e-07
2.26265e-05
5.23934e-05
-4.63515e-05
3.01946e-06
-7.25872e-05
3.62429e-05
4.53799e-05
5.10281e-05
4.9612e-05
1.14619e-05
6.3146e-06
1.38583e-05
1.41445e-06
1.35632e-05
-5.94301e-05
-5.26092e-05
-3.14452e-05
3.68996e-05
-1.13086e-06
4.39375e-06
1.65983e-05
1.01094e-05
-4.56739e-05
-5.67071e-05
-2.16058e-05
3.7537e-06
3.02105e-05
2.47174e-05
-3.7055e-05
-4.68163e-05
-8.03273e-05
-3.89208e-05
8.46449e-05
4.35197e-05
1.98984e-05
-8.17562e-06
-6.95745e-06
-5.38769e-05
3.58436e-05
-6.18506e-05
7.90434e-05
-1.59473e-05
-3.99171e-05
-6.26174e-05
3.51209e-05
5.15345e-05
1.96986e-06
-3.47022e-06
-9.9499e-06
5.45724e-05
-4.35946e-05
-3.20039e-05
3.58507e-05
-2.33697e-05
-7.19388e-06
3.16279e-05
-2.36785e-05
4.79082e-05
6.116e-05
-1.50187e-05
5.83357e-05
-1.60118e-05
-5.55509e-05
-4.11179e-05
3.92951e-05
8.7367e-05
-9.01823e-06
2.39068e-05
5.31236e-05
-2.11783e-06
3.75919e-05
-6.11142e-05
-5.37819e-05
4.75649e-05
-2.97432e-05
-7.41595e-05
-1.3014e-05
3.82902e-06
-4.95904e-05
-1.00629e-05
1.4806e-05
3.36766e-06
-4.77564e-05
-3.26609e-05
4.78001e-06
4.40953e-05
4.04308e-05
-4.65778e-05
-4.65793e-05
9.95421e-06
6.58103e-05
1.7776e-05
-1.76013e-05
-0.000102062
4.74703e-05
-2.01664e-05
-7.77596e-06
-8.79902e-06
4.50329e-05
-5.59189e-06
-5.70057e-05
-1.93105e-05
-3.39665e-05
4.75908e-05
2.16514e-05
-2.22086e-05
-2.47782e-05
-2.54149e-05
-5.89015e-06
-1.15664e-05
-4.13184e-05
-4.02362e-05
1.2049e-06
-4.48257e-05
2.04257e-05
3.38128e-06
-2.8292e-05
3.01644e-05
9.34815e-06
-6.71302e-05
-4.0574e-05
7.09335e-05
-3.39554e-05
-2.67514e-05
2.17741e-05
1.56362e-05
1.44402e-05
-8.90123e-06
-1.19939e-05
1.44318e-05
8.70283e-05
-9.69623e-07
1.24236e-05
-5.59273e-05
-1.92773e-05
3.90814e-05
3.06999e-06
-4.05499e-05
7.56595e-06
6.72843e-05
3.94994e-05
-7.47541e-05
-3.48643e-05
2.46889e-05
-5.16147e-05
3.7679e-06
-4.08549e-05
-1.83193e-05
8.32832e-05
-3.53501e-05
-3.56358e-05
-9.10123e-06
-2.37033e-05
-7.61579e-05
-4.31733e-05
-3.4452e-05
3.03322e-05
-5.93201e-05
-4.43425e-05
-1.38482e-05
2.80137e-05
4.43454e-05
7.11333e-06
-4.18164e-07
-3.37956e-05
5.63174e-05
4.62111e-05
-7.51631e-05
0.000106831
-4.85468e-05
-1.38169e-05
-8.4145e-07
-1.47615e-05
-6.57006e-05
-1.55214e-05