# vtk DataFile Version 1.0
Net Charge Density
ASCII
DATASET STRUCTURED_POINTS
DIMENSIONS 256 128 1
ORIGIN 0 0 0
SPACING 0.15625 0.15625 1
POINT_DATA 32768
SCALARS rhonet float
LOOKUP_TABLE default
-3.8963e-06
-9.51276e-05
0.000144791
9.63219e-05
3.56846e-05
0.000120451
-0.000118445
9.18579e-05
0.000154216
2.28991e-05
-3.75607e-05
0.000108726
0.00010382
7.94453e-05
0.000109347
4.99606e-05
8.77432e-05
0.000140236
4.05879e-05
-6.79102e-05
-6.4068e-06
0.000141859
0.000144767
4.77822e-05
3.7268e-05
2.07425e-05
7.74219e-05
9.0589e-05
-1.35215e-05
-7.27426e-05
5.23026e-05
3.97231e-05
4.36691e-05
6.90082e-05
1.24413e-05
0.000171713
1.68076e-05
7.28725e-05
7.73576e-05
-5.53043e-06
2.29322e-05
6.83218e-06
0.000136404
9.39815e-05
2.09394e-05
1.86831e-05
-3.16133e-05
6.95545e-05
0.000116214
7.88723e-05
-1.20077e-05
2.49782e-05
8.34425e-05
0.000148995
3.5595e-05
1.75039e-05
0.000151011
-5.17473e-05
5.67827e-06
7.16955e-05
5.02793e-05
6.06019e-05
7.16816e-06
8.01799e-05
8.22491e-05
-8.03834e-05
4.41822e-05
0.000136175
4.09953e-05
4.82837e-05
7.9234e-05
3.67112e-05
-2.69156e-05
4.9668e-05
-1.14902e-07
5.11558e-05
4.20859e-05
-3.83081e-05
9.21622e-05
0.000106615
8.71841e-05
2.54081e-05
7.49616e-05
0.000101106
4.54682e-05
-4.48024e-06
-1.66909e-05
6.70492e-05
0.000119669
-2.34882e-05
9.00027e-05
-1.47952e-05
-3.90527e-05
-6.21472e-06
-8.99179e-05
5.22719e-05
0.000157961
2.4097e-05
9.16882e-05
-2.49444e-05
0.000157723
9.09189e-05
-3.16952e-06
9.47256e-05
3.90385e-05
0.000130971
-2.58209e-07
-6.85494e-05
2.66265e-06
7.39996e-05
0.00013342
5.79277e-05
2.02984e-05
3.31155e-05
8.04215e-05
4.36592e-05
1.22658e-05
7.49689e-05
5.09601e-05
4.32272e-05
-3.98809e-05
-3.45631e-05
4.04445e-05
2.44894e-05
0.00011572
6.60876e-05
1.82551e-05
8.13091e-05
1.99641e-05
-1.88098e-05
0.000119797
9.2616e-05
-2.24425e-06
3.77489e-05
2.03243e-05
6.79679e-06
4.46094e-05
-3.19162e-05
4.68965e-05
-1.15028e-05
-4.98404e-05
2.32952e-05
2.09623e-05
0.000160761
9.88224e-05
2.06335e-06
0.000137836
1.15247e-05
-3.11241e-05
0.000132418
1.78273e-05
2.91321e-05
0.000108428
-8.34547e-06
3.45046e-05
4.32306e-05
5.74649e-06
3.42712e-05
-5.27664e-06
1.75425e-05
7.6778e-05
2.50082e-05
0.000112709
-2.20696e-05
3.25851e-05
2.55228e-05
5.84619e-05
-6.12723e-05
0.000105448
0.000137296
2.50291e-05
4.32237e-05
7.45822e-05
0.000111579
-2.02683e-05
-8.13371e-06
8.72933e-05
-8.23224e-05
1.15579e-05
3.31803e-05
8.8769e-05
-7.05998e-05
-3.18108e-05
5.65371e-06
1.0499e-05
7.98532e-05
4.14199e-05
7.20927e-05
0.000102554
7.46852e-05
2.48837e-05
0.000198125
8.16119e-05
-6.56995e-05
6.24201e-05
0.000201229
4.75221e-05
8.32754e-05
7.86668e-05
-1.63086e-05
5.95987e-05
0.000149169
4.39014e-05
3.83351e-05
-1.00754e-05
6.97707e-05
-5.9888e-05
5.34235e-05
6.86802e-05
8.57902e-05
6.81021e-05
0.000137439
0.000106097
-2.40526e-05
0.000111081
-0.00013128
0.000102691
9.90945e-05
-5.28723e-05
-3.79215e-05
8.69746e-05
0.000114877
0.000176992
3.40518e-05
7.95296e-05
5.67447e-05
-3.69134e-05
-1.51403e-05
8.69037e-05
6.86068e-05
6.22799e-06
4.16546e-05
2.36374e-05
2.60699e-05
0.000121307
-3.55702e-05
-2.05772e-05
2.75013e-05
5.94513e-05
8.979e-06
1.84991e-05
8.66938e-05
-5.82668e-05
-3.06871e-07
2.659e-05
-1.44094e-05
-2.21957e-05
-3.95464e-05
0.000128655
-4.29642e-06
2.10485e-05
-3.85131e-05
0.000102293
2.1438e-05
2.40527e-05
4.18614e-05
-0.0001049
2.47052e-05
-6.30283e-05
-2.51191e-05
-2.38868e-05
5.12257e-05
-2.60447e-05
-7.57636e-05
4.98932e-05
-6.60459e-05
-4.29e-05
2.33413e-05
-5.99084e-05
-8.02731e-05
3.00212e-06
-4.24265e-05
4.66208e-06
1.08909e-05
-2.15756e-05
-4.06033e-06
-5.82077e-05
-6.74947e-05
-0.000106138
-1.792e-05
-2.00452e-05
-5.72716e-05
-2.52764e-05
7.73068e-06
-3.07411e-05
-8.53868e-05
-3.53891e-05
-8.36118e-06
2.7442e-05
-7.95684e-05
-6.67481e-05
2.31332e-05
-0.000103178
-3.37883e-05
1.98346e-05
-8.20332e-05
-5.15863e-05
-4.38417e-05
8.67248e-06
3.55995e-05
-2.47126e-05
4.87431e-06
-0.000112384
-3.15171e-05
3.88798e-05
-3.39411e-05
-6.56131e-05
-4.11931e-05
-3.17377e-05
2.98236e-05
-2.85318e-05
-3.5457e-05
-2.34868e-05
-0.000116111
1.48104e-05
-3.37932e-05
4.56308e-05
-5.1269e-05
-5.72854e-05
-3.73453e-05
-3.01474e-05
-6.05669e-05
-1.00289e-05
-7.96346e-05
-0.000109192
1.21042e-05
-4.39814e-05
9.0173e-06
-1.84359e-05
1.7242e-05
-5.13539e-05
-1.04334e-05
4.76099e-05
-2.5494e-05
5.74088e-05
2.16532e-07
-3.24125e-05
-5.0444e-05
-8.22556e-05
2.8483e-05
2.44663e-05
-6.16945e-05
-0.000158637
-4.16979e-05
-6.58911e-08
-1.69141e-05
8.77352e-06
5.33124e-05
3.15625e-06
-1.07938e-05
2.47136e-05
-5.96524e-06
3.43234e-05
-2.73113e-05
-6.84685e-06
-1.89524e-06
-4.36434e-05
-0.000106617
-3.96515e-05
-2.96776e-05
-3.55599e-05
1.6422e-05
-5.91243e-05
-4.27185e-05
-1.06706e-06
-5.99911e-06
5.43522e-05
-3.54245e-05
-7.13799e-05
-7.13194e-05
4.01699e-05
1.15474e-05
-5.23517e-05
-1.11548e-05
9.64501e-06
3.18991e-05
-8.5775e-05
1.39617e-05
-6.13795e-05
-7.74185e-06
-3.48635e-05
-1.67097e-05
-4.5566e-05
-6.96029e-05
1.70248e-05
-4.88108e-05
-2.07965e-05
1.59813e-05
-1.05533e-05
-2.35442e-05
-1.24412e-05
-3.31046e-05
-4.60122e-05
-1.33582e-05
-4.22457e-05
-8.32311e-06
-5.94475e-05
-7.82578e-05
8.69704e-06
-2.01934e-06
-8.38246e-05
1.05492e-05
-3.22355e-05
-4.36765e-05
-0.000117681
-8.72521e-06
-3.99582e-05
-3.83077e-05
-7.16746e-05
9.37097e-06
3.00052e-05
-1.70409e-05
-2.39994e-05
-1.85566e-06
-5.11224e-05
-2.02566e-05
-8.13489e-05
-6.40946e-05
3.62427e-05
-8.02709e-05
-7.56339e-06
2.37456e-05
2.2117e-05
-5.27813e-05
-2.42516e-06
3.60705e-05
-9.46566e-05
1.02373e-05
-2.21481e-05
3.97032e-05
-4.13512e-05
-2.55483e-05
-5.70028e-06
3.04059e-05
-6.90698e-05
-4.77678e-05
3.67507e-05
-4.79631e-06
2.05857e-06
-4.8656e-05
-0.000107547
-6.60246e-05
-2.66e-05
-2.24796e-05
-9.32987e-06
-1.88575e-05
-0.00010145
6.32298e-06
3.69598e-05
4.61075e-06
-1.08487e-05
-2.36551e-05
-8.50841e-05
-3.90911e-05
4.81104e-05
-6.9777e-06
-7.51885e-05
-6.46282e-05
-4.37894e-05
3.0756e-05
-5.53508e-05
1.83063e-06
-5.12165e-05
9.7167e-05
1.17973e-05
-4.14066e-05
-5.22413e-05
-4.83999e-05
-4.73994e-05
3.21256e-05
-3.50834e-05
-7.29873e-05
1.69815e-06
-2.53876e-05
-1.98884e-05
4.50597e-06
-1.732e-05
7.05676e-05
5.70891e-05
-6.70666e-05
-3.48983e-05
-2.73384e-05
-7.0205e-05
-2.06066e-05
2.42677e-05
8.5886e-05
-8.70344e-05
6.93498e-06
-4.34534e-05
-3.627e-05
6.9032e-05
3.75883e-05
-6.27581e-05
-4.99119e-06
2.5542e-05
-5.11215e-05
2.26249e-05
-1.34826e-05
-4.80207e-05
-1.98239e-05
3.05509e-06
3.73246e-05
3.42677e-05
-1.23483e-05
-2.31678e-05
-0.000132199
-1.67056e-07
-7.60658e-06
5.1258e-05
-7.35302e-06
-7.36321e-05
5.0168e-06
-3.30426e-05
-1.99152e-06
5.00253e-05
-7.7975e-06
-2.33894e-05
-8.48016e-06
1.05414e-06
-1.92291e-05
7.13237e-05
-5.15233e-05
7.82311e-06
3.11629e-05
6.53439e-05
-4.67902e-05
-2.9064e-05
-1.14905e-05
-2.49567e-05
-9.34284e-05
-2.04819e-05
3.51591e-05
4.88631e-05
3.64077e-05
-1.64527e-05
3.77699e-05
6.1458e-05
-4.75245e-05
4.48455e-05
4.40085e-05
9.82289e-06
-5.10867e-05
1.23072e-05
2.34443e-05
7.04301e-05
4.96682e-05
-3.57148e-05
2.25289e-05
5.27396e-06
-2.51164e-05
4.8009e-05
3.40394e-05
2.11628e-05
-2.89198e-05
-7.34262e-05
2.16751e-05
3.48729e-05
1.42108e-06
-4.63354e-05
1.81748e-06
-1.65709e-05
5.22442e-05
1.9271e-05
-4.25101e-05
-9.05942e-05
6.88434e-06
2.94282e-05
9.43255e-06
3.90759e-05
-4.0176e-05
2.79769e-05
-3.30698e-05
9.02752e-05
1.87057e-05
2.19358e-05
-2.38945e-05
3.89219e-05
7.95068e-05
-1.42981e-06
-1.07865e-05
-4.31229e-05
-5.63425e-05
3.65558e-05
5.69131e-06
-2.9766e-05
3.18505e-05
-3.75106e-05
-1.97685e-05
6.36959e-05
5.06417e-05
-4.80586e-05
-4.18769e-05
-9.31229e-06
-2.6356e-05
-1.33658e-05
5.09445e-05
7.41069e-05
-1.38807e-05
-5.52135e-05
-6.0239e-05
2.2547e-05
4.0165e-05
-3.56472e-05
4.60864e-05
6.04031e-05
1.00419e-05
-2.72852e-05
-6.84022e-05
1.03846e-05
-3.90668e-05
-6.67316e-05
1.89329e-05
-3.86653e-05
-7.26087e-05
1.55342e-05
3.44659e-05
-9.18168e-06
-2.52385e-05
3.49991e-05
6.71941e-05
-7.81426e-06
-2.34847e-05
1.90872e-05
-3.45565e-05
-3.24671e-06
3.17622e-05
-4.33621e-05
-4.44569e-05
-1.29165e-05
6.19071e-05
-1.54722e-05
-1.92425e-05
-9.33651e-07
1.07803e-05
-2.67865e-05
6.43285e-05
6.2841e-07
3.16113e-05
-3.45439e-05
-2.02106e-05
3.29813e-05
-8.92929e-06
-5.33778e-05
-6.5838e-05
-1.9774e-05
2.38337e-06
3.65477e-05
8.36793e-06
-1.87801e-06
1.48292e-05
-2.75736e-05
4.24773e-05
2.79525e-05
9.69106e-05
6.65832e-05
1.94265e-05
1.45673e-05
-1.36637e-05
5.90174e-05
5.77694e-05
-3.53308e-05
8.65561e-05
-1.88483e-05
-2.10222e-05
-5.39363e-05
1.12341e-05
-1.22989e-05
7.03163e-05
-1.07868e-05
6.14929e-06
5.77932e-05
3.47513e-05
-3.56393e-05
-5.85581e-06
4.38272e-05
2.99958e-05
1.48882e-05
3.09432e-06
-6.2997e-05
1.44138e-05
-9.34468e-05
4.10881e-05
-3.34157e-05
-7.29716e-05
6.78655e-06
-4.31379e-05
3.26065e-05
-5.40693e-05
-3.51892e-05
-7.38096e-06
-3.46785e-05
7.78143e-06
5.28588e-05
1.66988e-05
-1.61503e-06
7.61891e-05
-2.89583e-06
5.27903e-05
3.30987e-05
2.69054e-05
3.20115e-05
-4.14011e-05
-7.91211e-05
6.70366e-06
-3.7106e-05
3.38419e-07
3.12879e-05
2.55897e-05
4.62432e-05
-7.34464e-06
3.85572e-05
-1.82479e-05
8.604e-05
-3.51763e-05
-2.42103e-05
-2.44784e-05
3.96875e-05
3.96365e-05
-5.59597e-06
-1.59816e-05
5.26488e-05
-3.12823e-05
-9.51311e-06
1.32088e-05
3.0308e-05
4.0144e-05
-6.213e-05
6.55744e-06
-4.02804e-05
7.68164e-05
-2.30569e-05
2.42703e-06
-2.36237e-05
-7.65687e-06
1.056e-06
-7.58459e-05
1.89051e-05
4.24924e-05
2.73308e-06
-4.68807e-05
-0.000111356
2.32974e-05
1.92825e-05
1.6694e-06
4.11412e-05
-1.26259e-05
3.11434e-06
-2.15393e-05
-7.41894e-05
3.57797e-05
1.81663e-05
-4.43209e-05
1.3806e-05
2.49419e-05
-1.40069e-05
-5.45266e-05
-1.59671e-05
4.84833e-05
-4.49922e-06
-0.000139602
5.79737e-05
3.08061e-05
0.000100899
-3.72751e-05
3.8272e-05
1.96726e-05
-2.19457e-05
-3.16998e-05
-3.15025e-05
5.79795e-05
8.84751e-05
-9.06724e-06
-5.99885e-05
9.2187e-06
8.46409e-06
-1.86265e-08
-2.07848e-05
-3.90375e-05
0.000130275
-3.43213e-05
-4.7052e-05
5.37114e-05
-2.7963e-06
2.82272e-06
-3.7919e-05
-6.05409e-05
4.75422e-05
4.84358e-05
-1.75372e-05
3.74631e-05
-5.19104e-05
4.18177e-05
3.39495e-05
-6.99725e-05
2.73655e-05
3.88059e-05
1.67808e-05
-5.26783e-05
6.28688e-05
-2.19624e-05
-4.31008e-05
-7.40332e-06
-2.66789e-05
4.25467e-05
3.65009e-06
2.75727e-05
-4.73876e-05
-6.43684e-06
3.03097e-05
-2.26302e-05
-8.1934e-05
-4.95822e-05
1.36233e-05
3.36365e-05
4.53519e-05
-3.78166e-05
6.72047e-05
-2.02061e-05
-6.23037e-05
4.74699e-05
4.6276e-05
1.24054e-05
3.82884e-05
2.15034e-05
5.87144e-05
-6.50003e-05
-4.25664e-05
-1.34122e-05
4.39062e-05
4.78704e-05
-2.23203e-05
-6.05176e-05
1.98302e-06
-2.43727e-06
-3.00118e-05
1.48918e-05
2.92046e-05
7.28865e-05
7.06636e-05
-3.58252e-05
-0.000140628
2.58457e-05
1.20315e-06
-2.88258e-05
-4.69701e-05
5.72426e-05
3.12584e-05
1.75565e-05
-0.000107817
-1.58467e-05
1.13324e-05
3.99519e-05
3.28141e-05
-4.30101e-05
3.20366e-05
3.74886e-05
-3.91938e-05
2.83315e-05
3.71941e-05
-1.37144e-05
3.56364e-05
-5.44162e-05
8.3045e-05
3.03243e-05
-1.9427e-05
-2.67293e-05
6.84276e-05
4.1218e-05
-2.91596e-05
3.35347e-05
3.92136e-05
3.68372e-05
-3.48373e-05
-2.81518e-05
1.41673e-05
3.52947e-05
-7.15669e-05
-2.1616e-05
4.6005e-05
3.64992e-05
2.3186e-05
-3.12356e-05
-7.13486e-05
2.25478e-05
-3.52726e-05
7.69852e-05
-4.16436e-05
-1.37861e-05
7.45142e-05
-5.40668e-05
4.00399e-06
-1.77845e-05
-5.58053e-05
2.01232e-05
5.96e-06
5.05815e-05
6.31162e-05
-6.58258e-05
8.14188e-05
-4.32236e-05
-2.44336e-05
2.67203e-05
4.39456e-06
9.56806e-06
7.65512e-06
4.39119e-06
-4.2216e-05
2.17033e-05
1.01277e-05
-1.56355e-05
-7.88145e-05
-2.79716e-05
-7.33149e-06
2.6283e-05
6.22857e-06
2.38394e-05
-8.04104e-06
5.26162e-05
3.00962e-05
-3.07956e-05
-8.68591e-05
1.14744e-05
3.87332e-05
1.11605e-05
-2.85619e-05
-9.12452e-06
-2.48151e-06
2.21184e-05
-3.23006e-06
2.53447e-05
2.25467e-05
3.20962e-05
-2.08742e-05
-3.06277e-06
6.05569e-06
-3.414e-06
3.49662e-05
-2.44874e-05
5.34733e-05
1.96631e-05
1.27888e-05
-1.1569e-05
2.92531e-05
2.87103e-06
3.39589e-05
-1.87163e-05
-2.88652e-06
-6.90417e-05
2.46686e-05
-5.03915e-06
-1.26839e-05
2.05981e-05
-2.634e-05
-2.66184e-06
-3.02474e-05
-7.38931e-05
-1.16547e-05
0.000124286
-9.67182e-05
2.30565e-05
4.08881e-05
1.12082e-05
1.89696e-05
2.29751e-05
-6.50401e-05
-1.85563e-05
-3.5894e-05
9.88832e-06
-2.25084e-05
-0.000114619
5.06437e-05
-0.000120174
-5.21557e-05
0.000129995
-2.85541e-05
-3.29317e-05
1.3981e-05
-3.08815e-06
-4.58444e-06
-6.87173e-05
5.00935e-07
2.5406e-05
-3.06813e-05
-4.83695e-05
-2.09836e-05
3.77457e-05
3.9908e-05
1.09903e-05
-3.37759e-05
2.43065e-05
4.91922e-05
4.58605e-05
-7.13925e-05
-6.57425e-05
-4.48681e-05
5.1466e-05
2.45124e-06
-1.54716e-06
-6.96705e-05
3.4261e-07
-1.04235e-05
6.89435e-06
-2.29042e-05
-2.35578e-06
-3.06215e-05
3.27418e-05
-3.2268e-06
-1.03374e-05
-2.52562e-05
2.8462e-05
9.52228e-05
-3.02616e-05
3.2171e-05
4.43812e-05
-4.54093e-05
-0.000101102
-3.30776e-05
0.00011101
6.25439e-05
-5.28279e-05
-0.000107186
-1.18127e-05
6.85672e-05
3.46119e-05
-5.40466e-05
-5.21381e-05
4.75171e-05
-4.06369e-05
-0.000119436
6.12037e-05
-1.81563e-05
-3.11724e-05
0.000105493
-4.54732e-05
-9.29441e-05
-5.38457e-05
9.50578e-06
-5.5499e-05
1.67229e-05
4.28164e-06
-7.23697e-05
6.52426e-06
4.59253e-05
6.77747e-06
-2.06707e-06
5.32221e-05
2.83385e-05
-3.75978e-05
-4.85517e-05
0.000104193
-1.62808e-05
-5.72775e-06
-2.97001e-05
-2.67266e-06
-4.5812e-05
8.22789e-06
-1.3111e-05
-4.38887e-05
-3.36712e-05
-5.49546e-05
4.80603e-05
-3.43904e-05
5.50936e-05
-3.26772e-05
-2.49939e-05
-9.60927e-06
3.26964e-05
-4.34379e-05
8.21743e-05
3.99037e-06
1.01079e-05
-2.64163e-05
-1.68569e-06
5.18314e-05
-5.05229e-05
7.65339e-05
-2.69974e-05
-2.84479e-05
5.25336e-06
1.91291e-05
5.75273e-05
-1.55072e-05
1.41477e-05
1.54795e-05
9.67541e-05
-2.60595e-05
2.79758e-06
-6.8649e-05
-4.36464e-06
5.35557e-06
-6.23055e-07
-1.12273e-05
2.76116e-05
-7.06454e-05
2.38864e-05
3.64635e-05
-5.86093e-06
-1.47324e-05
5.85362e-05
-1.46381e-06
5.05708e-07
-8.36374e-06
-6.68822e-05
-7.4585e-06
-5.66771e-05
5.49143e-05
-1.55683e-05
-6.51169e-05
1.93971e-05
-2.5009e-05
1.49547e-05
4.44497e-05
-8.87853e-06
-5.64915e-05
-7.07043e-05
-8.34186e-06
-2.963e-05
-2.15322e-06
-1.83214e-05
-1.8928e-06
-0.000102778
8.74803e-06
3.24822e-05
3.07964e-05
-0.000103662
-3.61553e-05
2.02422e-05
8.39109e-05
4.753e-06
-1.31456e-05
3.19695e-05
7.14557e-07
-3.71367e-05
-7.51378e-05
-6.92118e-05
-2.21259e-06
-7.09703e-05
1.36707e-06
-4.37519e-05
5.21007e-05
-3.20333e-05
-2.11226e-05
9.38191e-06
-1.06078e-06
4.85114e-06
-2.59295e-05
5.72975e-05
-2.03839e-05
4.02206e-05
1.71233e-05
-4.36113e-05
4.79119e-06
-4.09898e-05
-3.49013e-07
2.30945e-05
-3.3162e-05
1.34484e-05
1.23589e-05
-2.61039e-05
-4.63811e-05
1.17683e-05
-4.40205e-05
0.000100773
4.16173e-05
5.95757e-05
5.7274e-06
3.63542e-06
3.7217e-05
-2.83866e-05
-2.65327e-05
-3.87033e-05
-3.32438e-05
-2.94473e-06
-4.83508e-06
-7.42382e-05
-9.21183e-05
-4.12925e-05
9.36039e-05
1.79688e-05
2.46145e-05
5.07899e-05
-3.90918e-05
-4.86935e-05
-6.07771e-05
2.91872e-05
-7.01525e-05
2.39778e-05
5.71003e-05
1.43808e-05
-8.54449e-05
6.4892e-05
5.6416e-06
1.15009e-05
-0.000120717
5.33742e-05
7.36078e-05
5.39143e-06
1.38734e-05
1.18413e-05
-9.65118e-06
3.66955e-05
-3.03432e-05
4.71815e-05
6.17247e-05
-4.68129e-06
-4.04327e-05
-2.98398e-05
4.8338e-06
-1.19209e-06
4.36949e-05
-1.84914e-06
-1.13773e-05
-1.7061e-05
7.82477e-05
-4.5842e-06
1.79143e-05
-3.62857e-05
-7.78635e-05
7.38348e-05
-9.19311e-05
-5.20796e-06
2.09283e-05
2.30595e-06
7.05891e-05
3.83814e-05
7.42136e-06
5.50147e-05
-1.01443e-05
4.60945e-05
-1.68373e-05
-5.88754e-05
-4.91891e-05
5.14216e-05
5.45885e-05
-1.9853e-05
5.81009e-05
3.02007e-05
1.38804e-05
2.24962e-05
6.25561e-05
6.90203e-06
-8.80081e-05
-1.34252e-05
-5.00772e-06
4.87001e-05
5.9925e-05
6.30916e-05
1.42714e-06
2.14428e-05
-2.66385e-05
-9.90473e-06
-6.22044e-05
-1.60285e-05
3.25947e-05
-3.85357e-05
-1.90417e-05
5.31544e-05
-2.28166e-05
1.54099e-05
-4.23559e-05
-5.64614e-07
-5.11486e-05
-1.07908e-05
-0.000114607
2.06346e-05
1.91702e-05
7.28539e-05
2.73274e-05
-4.94905e-05
5.05787e-05
5.27869e-05
6.41997e-05
-7.99005e-06
4.43972e-05
-4.86512e-05
-2.5887e-05
-3.12882e-05
9.76642e-05
-4.46022e-05
-4.87097e-05
2.70448e-05
-5.04581e-05
1.36547e-05
-9.01832e-05
-0.000131356
6.04799e-05
5.67492e-05
-1.70093e-05
2.47732e-05
-9.10833e-06
5.16702e-05
-8.06584e-05
3.82912e-05
3.78343e-05
1.59068e-05
-7.97596e-06
-6.65535e-06
3.57419e-05
3.13768e-05
-9.32619e-05
-4.72957e-05
-9.38075e-05
-4.97692e-05
6.84744e-05
-3.5439e-05
9.14547e-06
-3.66229e-05
3.87209e-05
1.69349e-05
4.47605e-05
-5.40495e-05
2.94941e-05
6.61321e-05
1.22417e-05
-6.64287e-05
1.13354e-06
1.48169e-05
-1.36935e-05
6.08948e-05
-9.08854e-07
7.89309e-05
9.09669e-06
5.2616e-05
-9.66375e-05
3.41132e-05
6.60529e-06
-1.27819e-05
-4.43456e-05
-2.06705e-05
3.15032e-06
-9.30391e-07
-6.30614e-05
-0.000100799
-4.15875e-05
-9.1508e-05
-4.81862e-05
5.62919e-05
-1.5246e-05
-5.22907e-05
-2.41203e-05
-1.08295e-05
-4.57688e-05
-4.23098e-05
1.19051e-05
2.83606e-05
-1.41365e-05
-5.28244e-05
-6.1348e-05
1.77323e-05
1.07326e-05
-2.08279e-05
5.96307e-05
1.79058e-06
2.512e-05
-2.36355e-05
5.88677e-05
3.18952e-05
4.76105e-05
-7.31895e-05
7.22467e-05
-0.000100922
-6.24091e-06
6.49315e-05
8.48935e-06
3.23069e-05
-3.30701e-06
-4.322e-05
2.37825e-06
1.99964e-05
-1.27291e-05
9.59367e-06
3.61393e-05
2.75428e-05
6.92138e-05
-2.72389e-06
-6.3224e-05
-6.14556e-06
-7.611e-06
-1.02114e-05
4.45037e-05
5.20132e-06
2.67315e-05
-6.6302e-06
-4.79864e-06
-2.94801e-05
1.43547e-05
5.68945e-06
6.79198e-05
9.01218e-06
3.43907e-05
1.84245e-05
1.29037e-05
-4.46525e-05
3.45935e-05
3.36549e-05
1.93832e-06
-1.88093e-05
4.46877e-05
-5.23898e-05
6.75368e-05
7.7465e-05
6.37223e-06
8.13847e-05
-3.18107e-05
2.20666e-05
-1.73565e-05
-2.87804e-05
-6.86576e-05
1.19236e-05
2.47911e-05
1.23703e-05
-3.48673e-05
2.16775e-05
-2.20751e-05
-3.52529e-06
1.23351e-05
1.70933e-06
2.97133e-05
-6.88559e-05
-1.33734e-05
9.18957e-05
-3.43511e-05
1.47284e-05
-1.23635e-05
4.9457e-05
2.42062e-05
-4.44687e-05
5.05934e-05
0.000106778
9.66932e-05
6.52506e-05
8.89762e-07
-7.20692e-06
-1.14567e-05
6.669e-05
-5.44812e-06
4.01791e-05
-2.33978e-05
4.17558e-05
-3.41272e-05
-2.13978e-05
6.28107e-06
-2.62642e-05
3.58209e-05
-8.93143e-05
4.69466e-05
-3.57552e-05
3.30247e-05
2.34641e-05
-9.97115e-05
2.21338e-05
3.5702e-05
-1.87461e-05
2.13266e-05
-6.78233e-05
2.71617e-05
-5.16978e-05
5.68145e-05
4.88436e-05
-1.74809e-05
3.8041e-05
4.54171e-05
1.17876e-05
-8.37981e-06
2.07496e-05
-2.05641e-05
5.28251e-05
-7.57064e-05
-4.26272e-05
-7.6727e-06
2.04988e-05
-1.54354e-05
-3.12328e-05
1.174e-05
6.21653e-05
4.88085e-05
4.33612e-06
-0.00012757
-5.02244e-05
-6.86673e-05
-6.60997e-05
3.09135e-05
7.61509e-05
-7.01357e-05
-7.0302e-06
9.28564e-06
4.82402e-05
3.83961e-06
8.47329e-06
-6.75764e-05
-1.85831e-05
1.21734e-05
-8.66828e-06
-3.19525e-05
-1.42832e-05
3.18419e-06
7.33091e-06
1.82409e-05
2.56512e-05
-6.78843e-05
-4.71424e-06
3.4929e-05
-5.05333e-05
1.07945e-05
-1.50147e-05
-1.63051e-05
-2.95395e-05
9.53886e-05
2.63902e-05
-1.76691e-05
-2.15018e-05
-1.27994e-05
8.03289e-06
-1.3581e-05
2.63903e-05
-7.18515e-06
-1.90848e-05
2.17273e-05
5.39323e-05
-9.03434e-05
5.79042e-05
-1.44774e-05
-1.46052e-05
-3.83226e-05
-4.54389e-05
2.61621e-05
5.74819e-05
2.07163e-05
1.80586e-05
2.6194e-05
-7.22194e-06
-2.65964e-05
2.38706e-05
-3.81796e-05
-3.29991e-05
2.86611e-05
4.19596e-06
5.34141e-05
-1.2902e-05
-4.54613e-06
9.10495e-05
1.63319e-05
1.69137e-05
-4.63271e-05
3.55744e-05
-3.91717e-05
2.29459e-05
1.72228e-05
3.08629e-06
6.80585e-05
6.72811e-05
-1.70232e-05
-7.54662e-06
4.55861e-05
-1.23875e-05
-6.61274e-06
0.000122596
3.26276e-05
1.82132e-05
2.49493e-05
-5.22536e-05
-2.22393e-05
-5.70165e-05
1.30467e-06
7.6904e-06
2.41781e-05
1.07717e-05
-5.20683e-05
1.76709e-05
6.44928e-05
-6.11886e-05
5.44074e-05
-4.49322e-05
-7.05204e-05
6.23066e-06
3.27916e-05
4.7087e-05
1.32667e-06
1.32954e-05
-7.78603e-05
-2.81828e-05
-6.8926e-06
0.000112601
3.68477e-05
-3.34255e-05
4.85624e-05
3.18345e-05
1.14889e-05
6.94899e-05
0.000133271
-7.38587e-05
-4.20366e-05
-1.68969e-05
2.04104e-05
8.13231e-06
-1.95543e-05
3.47553e-05
5.0591e-05
-6.30391e-05
-4.2269e-05
1.79624e-05
5.70348e-05
-6.66594e-07
2.83982e-05
-3.47802e-05
-8.23163e-05
-3.1693e-05
-5.51024e-05
-1.69481e-05
6.43991e-05
-5.57773e-05
5.25215e-05
-0.00011234
-7.10648e-05
-1.52234e-05
-1.6027e-05
-3.59304e-05
5.28325e-05
4.40276e-05
-4.75463e-06
-6.05783e-05
-2.0325e-05
1.72127e-05
2.40905e-05
-2.15004e-05
-3.80276e-05
1.84211e-05
-5.2297e-05
-1.48044e-05
-9.0426e-05
-1.86138e-05
-1.40985e-05
0.000121307
-2.54703e-05
5.2521e-05
3.79472e-05
3.11935e-05
-3.85309e-05
-5.10272e-06
-4.49657e-05
2.62947e-05
1.12428e-05
-1.86055e-05
1.74433e-05
-3.76216e-05
8.71089e-06
-3.17954e-05
7.14652e-05
-7.47017e-05
0.000101809
5.19645e-05
3.18054e-05
1.94153e-05
4.63653e-05
-3.00515e-06
1.62398e-05
7.99994e-05
3.67616e-06
-1.37992e-05
-5.21091e-05
-5.62188e-05
2.68223e-05
-3.78023e-05
-4.78232e-05
2.88627e-05
-2.68992e-05
-1.16547e-05
-5.02805e-05
3.10764e-05
-2.00596e-05
3.81089e-05
-8.71744e-05
-4.69049e-05
1.67186e-05
4.92437e-05
9.12813e-06
1.42585e-06
-6.69416e-05
-7.27305e-05
-1.43613e-05
-9.74466e-06
-1.5698e-05
2.67376e-05
-9.21222e-05
-5.88649e-05
-1.25872e-05
5.10605e-05
-8.97489e-05
7.86019e-05
1.30899e-05
1.51681e-05
-0.000114672
-4.1971e-05
1.0648e-05
8.84162e-05
-6.75314e-06
-6.93079e-06
1.0808e-05
-9.15197e-05
-1.49587e-05
1.07784e-05
5.18083e-05
-3.28289e-05
4.25938e-05
9.43046e-06
7.85803e-07
4.03607e-05
-3.83437e-06
2.66727e-05
-2.21874e-05
6.11413e-07
2.16393e-06
1.83088e-05
-2.01636e-05
-7.52349e-05
-8.20155e-05
-4.08834e-05
3.06881e-05
3.11451e-05
-1.76035e-05
-1.14896e-05
3.87504e-05
9.27458e-06
1.17533e-05
-4.4487e-05
-5.27482e-05
-4.26521e-05
9.60722e-05
-3.91065e-05
-6.17565e-05
-4.51244e-05
4.72018e-06
-4.15778e-05
-1.74786e-06
2.57666e-05
4.81142e-05
-3.50768e-05
2.89147e-05
3.42638e-05
2.19486e-05
-2.03151e-05
-2.84291e-05
2.95845e-05
6.2325e-05
1.81489e-05
-1.77097e-05
-4.22897e-05
-3.51807e-06
6.32219e-05
3.54636e-06
7.63207e-06
-5.2941e-06
1.01696e-05
2.74983e-05
2.91365e-05
-2.60758e-05
-5.97397e-05
8.67876e-05
3.29316e-05
-1.45725e-05
-1.42371e-05
5.729e-05
3.84264e-06
9.8189e-05
0.000121367
-2.85939e-05
2.49979e-05
7.872e-06
-1.86712e-05
-1.70154e-05
-7.32372e-05
0.00011208
-1.25971e-05
-6.01783e-05
7.86246e-06
3.08843e-05
9.78436e-06
7.84115e-06
1.71368e-05
4.79631e-08
-2.67222e-05
-2.56811e-05
-4.13372e-05
-4.55836e-05
-1.76236e-05
-7.7663e-06
-4.82695e-05
7.13977e-05
1.64243e-05
3.01738e-05
-3.19598e-05
1.39838e-05
-1.39399e-05
-1.55893e-05
4.47605e-06
-1.65858e-05
8.27656e-05
5.56017e-05
5.67245e-06
3.54118e-05
2.86219e-06
-1.63056e-05
2.07496e-05
9.63267e-06
-1.45014e-05
-4.88879e-05
-4.0748e-05
-9.69216e-06
4.12577e-05
-2.15801e-05
-3.41526e-05
5.64973e-05
-1.37317e-05
-5.04199e-05
3.84744e-05
-2.3362e-05
-1.1957e-06
-5.94469e-05
5.95255e-06
6.40078e-05
-7.39726e-05
-2.23713e-05
-4.28862e-06
-7.43165e-05
-1.58099e-05
5.60062e-05
-2.41019e-05
5.20141e-05
4.58722e-05
-3.16431e-05
0.000122277
2.89963e-05
1.20704e-05
-2.74091e-05
-3.44679e-05
-3.20202e-05
5.98461e-05
4.27902e-05
-2.54269e-05
-1.62857e-05
4.25263e-05
4.5598e-05
-7.08048e-05
-4.53838e-05
-1.75918e-05
6.00133e-05
3.70808e-05
4.36979e-05
-7.64499e-06
2.17559e-05
1.48428e-05
1.47815e-05
3.49523e-05
1.44988e-05
-7.17351e-05
5.90796e-05
3.93528e-05
-1.62122e-05
4.7453e-05
-1.8456e-05
-3.84231e-05
8.46093e-05
5.78981e-05
5.29938e-05
-2.82951e-05
-1.40264e-05
-3.38163e-06
6.56866e-05
1.70164e-05
1.81664e-05
-1.45177e-05
-3.22156e-05
8.30204e-06
5.70647e-05
3.72085e-05
6.89621e-05
3.92862e-05
3.07858e-05
-1.59348e-05
4.17507e-05
8.47271e-06
-3.21824e-05
-1.07551e-05
-1.45922e-05
5.39318e-05
1.2189e-05
2.11236e-05
-2.64749e-05
1.12987e-05
-2.39077e-05
-1.44509e-05
1.09981e-05
-7.73522e-06
4.69014e-06
1.6859e-05
6.67057e-05
1.57991e-05
-0.000107579
-8.24992e-05
6.52322e-06
-5.85074e-05
5.17324e-05
1.84864e-05
1.66771e-05
-7.07679e-05
5.68549e-06
-1.86227e-05
-4.33434e-05
5.83276e-05
-4.15356e-05
-7.76731e-05
-1.33206e-05
-3.7475e-05
-1.09954e-06
5.0631e-05
3.43446e-05
5.21399e-05
2.95315e-05
4.71438e-05
-2.02372e-05
0.000134812
5.51657e-05
-3.82706e-05
-1.12213e-05
0.000111732
1.12806e-06
-1.38342e-05
-2.07326e-05
-1.05337e-05
5.75103e-06
2.51085e-05
-6.47181e-05
1.22248e-06
0.00011825
2.02319e-05
-6.96788e-05
-8.34576e-05
9.06892e-05
4.29543e-05
-6.09934e-05
-2.33715e-06
4.52413e-06
-2.48614e-05
-7.49838e-05
-6.30121e-06
3.39795e-05
6.28869e-05
-2.65869e-06
-2.97542e-05
-6.67726e-05
-1.08314e-05
7.42322e-06
3.03184e-05
-1.26916e-05
1.26479e-05
-3.24742e-05
-1.54033e-05
4.65957e-05
-6.06757e-07
-7.33231e-05
-3.61169e-05
3.19344e-05
5.07124e-05
5.52051e-05
-3.86611e-05
-2.71018e-05
-1.73226e-06
4.00441e-05
-1.28825e-05
1.15236e-05
2.75384e-05
1.51007e-05
2.02364e-05
3.27824e-05
-0.000103584
-2.37206e-05
5.62994e-05
-3.56046e-05
-8.56416e-05
0.000101618
-2.90701e-05
2.15792e-05
-5.19506e-05
6.29353e-06
-5.95588e-05
3.80224e-06
-4.01158e-05
2.2179e-05
-9.73791e-06
6.35826e-05
-2.76126e-05
-2.54388e-05
9.0673e-05
-5.55888e-05
-3.51444e-05
1.47806e-05
-2.30938e-05
3.46847e-05
-4.10149e-05
-1.09316e-05
2.98404e-05
3.45643e-05
-4.78462e-05
-5.7874e-05
-3.72984e-05
3.58619e-05
-1.02364e-05
-1.76753e-05
3.83476e-05
4.55021e-06
-3.07261e-05
-6.31751e-05
6.19004e-06
-5.68883e-05
0.000120349
-0.000117729
-6.80868e-05
1.01866e-05
-1.02156e-05
2.82163e-05
-1.96021e-05
-6.25558e-06
3.50751e-05
9.93151e-06
-5.96482e-05
5.40572e-05
-2.97569e-05
-7.26315e-07
-9.39087e-06
-2.64803e-05
5.89008e-05
9.35846e-05
7.9501e-05
-1.6892e-05
-6.82928e-05
-7.77043e-05
4.75619e-05
-1.31771e-06
1.17442e-05
5.16307e-05
-6.31508e-05
2.21428e-05
3.45728e-05
-3.8962e-05
4.9273e-05
9.85339e-06
-2.73692e-05
-7.18011e-05
-2.20747e-06
9.4123e-06
5.68596e-05
-2.01401e-05
-8.6223e-06
7.09039e-06
9.57167e-07
-2.91981e-05
-3.67722e-05
9.87086e-07
-7.08352e-06
-7.77068e-05
4.07126e-05
2.2804e-05
-2.33529e-05
-2.82733e-05
6.35581e-06
-3.10612e-05
-2.37789e-05
5.87655e-05
3.77755e-05
-8.88543e-05
1.8874e-05
2.82152e-05
2.42065e-05
-1.97265e-05
3.13715e-05
2.6772e-05
-2.78916e-05
-1.14409e-05
4.39797e-05
-1.84721e-05
6.28957e-06
-9.41625e-06
3.67082e-05
-1.65388e-05
-2.21907e-05
-3.26345e-05
2.11543e-05
-9.05292e-05
-2.25267e-05
7.17794e-06
-1.67805e-05
-5.12953e-05
-4.15263e-05
3.02581e-05
1.87578e-05
1.34513e-05
6.79973e-05
0.000103677
-2.68694e-05
-5.6222e-05
-7.36839e-06
-8.72917e-06
-8.22102e-06
-0.000119192
3.07657e-05
9.97079e-05
7.93557e-05
2.35233e-05
2.89537e-06
3.23564e-05
6.61914e-06
-1.27411e-05
-1.12368e-05
3.50177e-06
6.08938e-05
-6.73463e-06
5.99329e-05
-9.1074e-06
-4.93438e-05
-1.2501e-05
-1.7921e-05
3.41781e-05
-3.37975e-05
7.39505e-06
5.9453e-05
0.000102923
1.58972e-05
2.07359e-06
6.60841e-05
-5.49525e-05
-6.422e-05
4.83589e-06
5.86056e-05
-3.53619e-05
-0.000113618
-3.2186e-05
8.25233e-06
3.03728e-05
4.09456e-06
1.25878e-05
-2.57909e-05
4.03007e-06
-1.99422e-05
-0.000115458
-8.30321e-06
2.34315e-05
1.67679e-05
-9.89961e-06
-1.77942e-05
3.41058e-05
5.38381e-05
-8.89762e-07
-3.2686e-05
-1.44825e-05
1.08391e-05
2.86294e-05
1.41952e-05
-1.13221e-05
4.36333e-05
-9.69996e-06
4.36602e-05
-6.26e-06
-6.49595e-05
8.33397e-05
7.37375e-06
-2.3359e-05
-5.29967e-05
8.21927e-06
-7.67082e-05
-5.47342e-05
1.6998e-05
-2.35284e-05
6.93039e-05
-5.89245e-05
-1.58963e-05
-3.797e-06
-4.36553e-05
1.75042e-06
6.90902e-06
-1.56342e-05
-1.26812e-05
-6.31402e-06
-2.87474e-05
6.35837e-05
-1.27368e-05
2.98875e-05
-1.94584e-05
0.00010666
-6.87317e-05
2.64216e-06
7.97829e-05
-7.28986e-05
-2.11626e-05
-1.82854e-06
-5.65464e-06
-3.07193e-05
-1.66707e-07
6.13098e-05
-4.53605e-05
-3.93705e-06
2.74229e-05
5.10006e-05
6.30144e-06
2.15231e-05
-5.9315e-05
-4.52383e-05
-4.56912e-05
-4.39745e-05
-2.38915e-05
-5.03428e-05
-2.24271e-05
-6.2891e-05
1.11947e-05
0.000117077
1.08852e-05
1.60339e-06
7.11565e-06
-1.24827e-05
-9.79607e-05
1.17274e-05
-2.43357e-05
-6.52869e-05
-4.57338e-05
9.77495e-05
-2.84505e-05
2.46854e-05
2.8971e-05
-3.39509e-05
9.19255e-05
-5.06385e-05
-3.13997e-05
4.17582e-07
2.26257e-05
5.23947e-05
-4.6351e-05
3.01981e-06
-7.25875e-05
3.62424e-05
4.53799e-05
5.10277e-05
4.96119e-05
1.14614e-05
6.3146e-06
1.38574e-05
1.41456e-06
1.35631e-05
-5.94303e-05
-5.26091e-05
-3.14452e-05
3.68985e-05
-1.13051e-06
4.39328e-06
1.65976e-05
1.01093e-05
-4.56735e-05
-5.67074e-05
-2.16055e-05
3.75358e-06
3.02102e-05
2.47173e-05
-3.70546e-05
-4.6816e-05
-8.03267e-05
-3.89204e-05
8.46453e-05
4.35194e-05
1.98979e-05
-8.17608e-06
-6.95756e-06
-5.38758e-05
3.58439e-05
-6.18508e-05
7.90434e-05
-1.59482e-05
-3.99172e-05
-6.2617e-05
3.51212e-05
5.15336e-05
1.97045e-06
-3.47057e-06
-9.94944e-06
5.45722e-05
-4.35947e-05
-3.20034e-05
3.58506e-05
-2.33699e-05
-7.19388e-06
3.16277e-05
-2.36786e-05
4.7908e-05
6.11598e-05
-1.5019e-05
5.83357e-05
-1.60113e-05
-5.55504e-05
-4.11177e-05
3.92946e-05
8.73664e-05
-9.01846e-06
2.39067e-05
5.31228e-05
-2.11759e-06
3.75921e-05
-6.11142e-05
-5.37824e-05
4.7565e-05
-2.9743e-05
-7.41602e-05
-1.30142e-05
3.8296e-06
-4.95901e-05
-1.00627e-05
1.4806e-05
3.36731e-06
-4.7756e-05
-3.26617e-05
4.77966e-06
4.40958e-05
4.04308e-05
-4.65778e-05
-4.65791e-05
9.95432e-06
6.58095e-05
1.77752e-05
-1.76016e-05
-0.000102062
4.74707e-05
-2.01663e-05
-7.7755e-06
-8.7989e-06
4.50332e-05
-5.59166e-06
-5.70056e-05
-1.9311e-05
-3.39666e-05
4.75905e-05
2.16507e-05
-2.22092e-05
-2.47788e-05
-2.5415e-05
-5.89038e-06
-1.15659e-05
-4.13179e-05
-4.0236e-05
1.20583e-06
-4.48264e-05
2.04247e-05
3.38047e-06
-2.82915e-05
3.01641e-05
9.34862e-06
-6.713e-05
-4.05739e-05
7.09338e-05
-3.39552e-05
-2.67515e-05
2.17741e-05
1.56355e-05
1.44392e-05
-8.90146e-06
-1.19942e-05
1.44324e-05
8.70278e-05
-9.70205e-07
1.2423e-05
-5.59278e-05
-1.92776e-05
3.90806e-05
3.06941e-06
-4.05499e-05
7.5663e-06
6.72846e-05
3.9499e-05
-7.47541e-05
-3.48639e-05
2.46887e-05
-5.16152e-05
3.76673e-06
-4.08548e-05
-1.83191e-05
8.32827e-05
-3.53502e-05
-3.56362e-05
-9.10205e-06
-2.37037e-05
-7.6158e-05
-4.31732e-05
-3.44524e-05
3.03324e-05
-5.93208e-05
-4.43431e-05
-1.38483e-05
2.80144e-05
4.43456e-05
7.11216e-06
-4.1828e-07
-3.37955e-05
5.63175e-05
4.62114e-05
-7.51623e-05
0.000106831
-4.85467e-05
-1.38168e-05
-8.41334e-07
-1.4761e-05
-6.57007e-05