# vtk DataFile Version 1.0
Net Charge Density
ASCII
DATASET STRUCTURED_POINTS
DIMENSIONS 256 128 1
ORIGIN 0 0 0
SPACING 0.15625 0.15625 1
POINT_DATA 32768
SCALARS rhonet float
LOOKUP_TABLE default
-8.89965e-05
-0.00016443
6.73247e-05
0.000180923
3.86278e-06
0.000191473
3.31744e-05
-3.29298e-05
0.000211425
0.00020405
2.30237e-05
0.000279595
0.000127751
-0.000183836
-0.000216214
0.000243326
0.000142679
-9.86999e-05
-2.87001e-05
2.38949e-05
4.87594e-06
0.000126141
-8.77725e-05
5.3558e-05
9.73925e-05
2.47741e-05
7.28205e-05
7.33134e-05
0.000266094
4.45556e-05
-0.000187995
-0.000141229
0.00013852
0.00019782
4.20047e-05
0.000104592
0.000146124
-7.05896e-05
3.89594e-05
2.23198e-05
0.000178941
0.00013508
8.8511e-05
0.000102748
0.000125256
6.33788e-06
2.51116e-05
8.20985e-05
5.31512e-05
0.000119897
0.000161602
-1.11039e-05
0.00015061
0.00017972
-9.1678e-05
-3.29588e-05
-3.99994e-05
0.000187686
0.000135206
0.000108327
-0.000173156
0.000276285
0.000165612
-3.84382e-05
-0.000121112
5.01914e-05
-8.66072e-05
0.000157549
1.5198e-05
-7.60977e-05
-6.64495e-05
-0.000151567
-3.41679e-05
0.000301609
7.66137e-05
-4.76975e-05
6.83876e-05
0.000145776
6.3415e-05
1.53664e-05
-0.000111347
-6.43474e-05
0.000307742
0.000107896
0.000156532
0.000151515
0.00018837
-0.000153581
0.000203115
0.00031454
8.47193e-05
-5.6747e-05
3.6509e-06
4.21898e-05
-1.17713e-05
0.000185573
-6.01257e-05
9.25153e-05
-0.000105055
0.000513904
0.00018112
-4.06466e-05
0.000103039
-1.57752e-05
1.81863e-05
0.000185247
1.56637e-05
-3.30393e-05
3.95835e-05
-5.65074e-05
9.67322e-05
0.000135004
-7.10147e-05
-0.000116246
-0.000293087
-1.20508e-05
0.000196575
0.000161801
1.39732e-05
-0.000188641
5.74626e-05
1.23902e-05
6.46162e-05
4.7017e-05
1.39867e-05
-2.69527e-05
8.53456e-05
2.44342e-05
0.00018368
2.48261e-05
3.65493e-05
0.000122553
9.48427e-05
-3.01062e-05
9.04198e-05
5.78717e-05
0.00027915
0.000120272
0.000106484
-0.000217122
-4.58106e-06
6.54801e-05
-4.9267e-06
4.93006e-05
-3.99719e-05
0.00010235
0.00016881
-3.91199e-05
3.76491e-05
0.000252592
-8.82363e-05
-4.82018e-05
0.000177523
0.000274355
0.000128818
6.23011e-05
0.000135928
8.18423e-06
4.77405e-05
6.06263e-05
0.000130789
0.000107803
-8.37161e-05
9.65771e-05
-5.18438e-05
-0.000102245
0.000160799
0.000218389
0.000229294
4.46856e-05
-5.0218e-05
-2.03331e-06
-6.93207e-06
-3.22649e-05
9.88856e-05
0.000118853
0.000188594
-3.82812e-05
-0.000114186
9.30813e-05
0.000170247
0.000170585
-5.99471e-05
-0.000114894
3.01123e-05
0.000124834
0.000147015
0.000125632
0.000105982
0.000260402
0.000187682
0.000105557
7.29118e-05
-8.07226e-05
-0.000155445
0.00030499
0.000208996
3.35153e-05
0.000190698
6.13416e-06
7.67177e-06
1.51945e-05
0.000192278
8.82993e-05
-0.000104467
0.00014671
-5.74146e-05
-8.37923e-06
-8.24683e-05
0.000302362
-2.56732e-05
-0.00012002
0.00013921
0.000212545
-6.37444e-06
-5.47462e-05
3.51253e-05
5.7791e-05
4.46549e-05
0.000108325
-9.93183e-05
-0.000142599
0.000304249
8.57086e-05
-0.000139694
0.000208727
-8.71236e-05
6.99726e-05
-0.00020923
3.65512e-05
0.000211047
-0.000121397
-8.78274e-05
0.000243595
0.000104742
7.16867e-05
0.000175833
-8.41692e-05
0.000117092
0.000292926
3.00534e-05
-0.000198832
0.000113081
8.61073e-05
0.000117134
0.000126007
4.07929e-05
2.43261e-05
0.000117619
-7.49808e-06
6.64268e-05
-0.0001827
-1.10206e-05
-0.000116789
-5.03096e-05
0.000113211
9.38515e-05
7.11111e-06
-1.07207e-06
-0.000114282
1.30755e-05
-9.59646e-05
-0.00018783
-1.47221e-05
0.000141969
-0.000105543
-2.11771e-05
0.000159347
-6.05982e-05
-0.000104908
-0.000191294
-3.15245e-05
2.67862e-05
-8.83364e-05
2.81918e-05
6.03008e-05
-2.11117e-05
-0.000153984
-6.70971e-06
-0.000122242
-5.28992e-05
-0.000213783
8.63422e-05
2.43844e-05
1.32958e-06
-1.4683e-05
-4.76751e-05
0.000114567
-3.24089e-05
-5.61238e-06
-1.98612e-05
-3.69209e-05
-3.48268e-06
-0.000116264
-5.25553e-05
-1.27149e-06
-2.64917e-05
-0.000104853
-3.60253e-05
8.1333e-05
-0.000105781
-0.000144953
7.5291e-05
4.11213e-05
-2.63747e-05
3.98706e-05
-9.31581e-05
4.86263e-05
8.56118e-07
4.31854e-06
-0.000119127
-7.30145e-05
6.0575e-05
2.74992e-05
-0.000101008
6.03881e-05
-2.35746e-05
-0.000135273
-4.44637e-06
1.76305e-05
-0.000143069
5.91768e-05
-6.20319e-06
4.06072e-05
8.06637e-05
-7.9919e-05
3.64549e-05
-5.82091e-05
-9.32382e-06
5.90807e-05
4.19957e-05
3.69132e-05
-4.19616e-05
-5.43676e-05
3.4102e-05
-4.67335e-05
-0.0001537
-6.71793e-05
6.00314e-05
-4.68114e-05
-3.43907e-05
-8.82401e-05
4.55752e-05
-0.000176053
1.12817e-05
-0.00015407
-0.000127912
-9.47628e-05
-6.21467e-05
-4.80891e-05
5.24875e-05
-3.36766e-06
-0.000122984
4.30979e-05
-0.000154295
6.54004e-05
-0.00010901
-7.15225e-05
-5.46529e-05
0.000123682
-2.69087e-05
3.0817e-05
-0.000163153
0.000118408
-4.62126e-05
-0.000235137
-5.79358e-05
-7.17833e-05
-0.000163478
5.96761e-05
1.61468e-05
-7.24096e-05
2.98856e-05
-4.80521e-05
-4.58634e-05
-7.19618e-05
-3.38636e-05
-0.000109087
7.39485e-05
9.9036e-05
3.75014e-05
8.90733e-05
1.56955e-05
-6.02786e-05
2.84287e-05
-7.58178e-05
-6.37146e-05
0.000168836
-6.8859e-05
-0.000162257
2.27819e-05
1.59431e-06
-7.45541e-05
-0.000121428
-1.7772e-06
-0.000190662
0.00010786
0.000110056
-2.80035e-05
-1.88076e-05
-0.000179983
-8.35265e-05
9.67798e-05
8.11357e-06
6.51625e-05
0.000115119
-8.75527e-05
-5.66706e-05
4.48845e-05
-0.000137129
-9.15061e-05
-0.000117078
7.77822e-05
-6.16324e-05
-7.80416e-05
-4.38606e-05
6.10384e-05
-0.000105036
5.42321e-05
3.28161e-05
8.62764e-05
-5.37976e-05
-4.0635e-05
1.56843e-05
-4.02809e-05
-0.00021114
2.38114e-05
0.000203274
-1.50737e-05
4.13631e-05
-8.67898e-05
-6.52749e-05
3.89039e-05
-0.000102638
1.51224e-05
-4.97352e-05
-2.76988e-05
2.26528e-05
-3.52249e-05
-0.000176033
-0.000125343
-3.13103e-05
-3.65777e-07
-0.000170566
-4.7553e-05
-5.78196e-05
-0.000183783
-2.11978e-05
5.8874e-05
5.74172e-06
-3.58103e-05
-5.21948e-06
-8.06734e-05
-0.000193738
-0.000104422
-3.91722e-05
4.23505e-05
-9.05199e-05
-7.6201e-05
-8.52789e-06
0.000146161
-0.000152343
-5.96846e-05
9.51999e-05
-0.000116926
9.23373e-05
-9.78988e-05
-1.47186e-05
0.000151847
2.37792e-05
-7.93705e-05
-2.82907e-05
-1.92882e-05
-2.44337e-05
-0.000142313
0.000105529
4.18117e-05
1.36645e-05
-1.15989e-05
-2.04687e-05
-2.06521e-07
-1.97632e-05
2.11212e-05
0.000109334
-0.000261437
4.28503e-05
4.0064e-05
-7.66994e-05
-6.17964e-05
-1.0273e-05
-0.000159574
-8.18922e-05
7.35668e-05
-4.22969e-05
9.23127e-06
-1.98813e-05
9.94606e-06
-8.879e-07
-5.61635e-05
-3.99558e-05
-5.35061e-05
-0.00010272
9.00059e-05
-0.000219845
-0.000120905
-5.90216e-05
4.97603e-05
-3.80761e-05
-1.36705e-05
-2.83029e-06
-8.34797e-05
1.19549e-05
-7.01742e-05
-3.17381e-05
1.34765e-05
5.83426e-05
-0.000137647
-8.99404e-05
0.000151387
1.51158e-05
-6.14172e-06
-0.000129065
3.11773e-05
0.000173844
-0.000137103
4.43446e-05
0.000100966
9.51381e-06
9.3428e-06
4.56325e-05
-4.52995e-05
0.0002318
-1.65907e-05
-9.65686e-05
0.000247102
-6.24572e-05
-9.6212e-05
4.41667e-05
-6.78148e-05
-9.39944e-05
-3.89076e-05
6.9415e-05
5.60172e-05
3.4889e-05
-0.000183194
5.50057e-05
9.55173e-05
2.66584e-05
-3.39593e-05
0.000120549
5.00283e-06
-7.52759e-05
0.000127643
-7.99585e-05
-8.11345e-05
-0.000202426
6.17069e-05
-9.95559e-05
-5.4323e-05
-5.94817e-05
-9.60128e-05
0.000116062
-0.000147444
1.14928e-05
-7.43307e-05
0.000155804
7.66395e-05
-6.99934e-05
7.37107e-05
-2.04378e-05
-8.95966e-05
9.62397e-05
-3.38346e-05
-3.49055e-05
4.17583e-05
0.000162894
3.63598e-05
8.77911e-05
-3.58351e-05
-2.20584e-05
-3.02261e-06
-1.37133e-05
3.0427e-05
5.12843e-05
-1.66395e-05
-6.64192e-05
-0.000106226
-3.41025e-05
-0.000114615
-1.21312e-05
2.69826e-05
0.000152796
4.25638e-05
-6.62485e-05
1.30311e-05
0.000125127
-3.36288e-05
0.000125026
-3.74271e-05
-0.000105816
-9.70288e-05
0.000180479
2.01131e-05
3.31968e-05
4.16909e-05
0.000125363
-0.000130525
0.000146989
3.85052e-05
-9.2203e-05
-5.52763e-06
-2.8895e-05
-7.75097e-05
-0.00016559
-6.2109e-05
8.73231e-05
0.00013541
-5.54549e-05
8.27911e-05
8.54187e-05
0.000115635
-8.62867e-05
4.55808e-05
0.000119126
0.00018409
2.40607e-06
0.000137161
5.34613e-05
5.22614e-05
5.68461e-05
0.000167474
-5.51224e-05
-1.33797e-05
-4.05208e-05
-0.000125639
6.85598e-05
-1.3268e-05
3.22426e-05
-2.87499e-05
-4.65669e-05
-8.74826e-05
-7.05925e-05
7.68013e-05
-9.85499e-05
4.49251e-05
-7.86617e-05
9.82091e-05
-0.000145106
-0.000182992
0.000104832
-1.31569e-05
-7.55029e-05
0.000210964
-6.38552e-05
8.74365e-05
0.000118602
-0.000142687
0.000153399
0.000188842
-0.000133898
-3.04489e-05
-8.05345e-05
-1.98926e-05
-2.80347e-05
5.00234e-05
-0.000123372
-0.000185927
2.17024e-05
2.22625e-05
-4.22011e-05
8.2836e-05
-0.000114716
-1.43955e-05
-3.4062e-05
-0.00010146
3.65769e-05
-5.14564e-05
0.000108135
-1.38626e-05
-8.48667e-05
1.70886e-05
0.000166329
4.82555e-05
-0.000137475
-0.000130724
-9.48517e-06
4.53352e-05
-0.000128979
5.08633e-05
1.61456e-05
-0.000157478
0.000116753
-5.86519e-05
-9.88657e-06
2.70254e-05
5.98143e-05
5.88681e-05
7.47676e-05
-2.03857e-05
6.78023e-05
-9.19697e-05
-5.69073e-06
-0.000144546
0.00017434
-1.03796e-05
-3.03995e-06
3.54417e-05
7.37596e-05
5.4342e-05
-7.2493e-05
-4.3993e-05
-3.61344e-05
2.63087e-05
0.000149056
6.77112e-05
-0.000108175
2.75206e-07
-0.000102251
0.000191155
-4.92204e-07
2.48825e-05
1.41293e-05
-5.52986e-05
-0.000112945
1.64516e-05
5.99901e-05
-0.000104574
-2.01636e-05
-2.06162e-05
-2.06783e-05
2.71753e-05
3.29529e-05
9.95214e-05
-4.5678e-05
-3.40294e-06
3.48247e-05
5.4494e-05
4.12605e-05
0.000162435
-7.5497e-05
-7.04981e-05
-8.71019e-07
0.000148986
8.32423e-05
6.136e-05
7.60476e-05
-1.61112e-05
-8.15629e-06
0.000102876
4.52765e-05
3.04857e-06
1.02995e-05
9.89578e-05
-6.89174e-05
3.38098e-05
7.08601e-05
-5.00825e-05
-0.000160351
2.85004e-05
-3.94692e-05
0.000187724
0.000159626
2.64987e-05
9.43413e-05
4.62709e-05
5.01343e-06
-5.53357e-06
0.00016653
-0.000108887
6.76443e-05
7.9785e-05
2.64238e-05
-3.33127e-05
-3.69875e-05
0.000154183
-0.000138619
-8.34804e-05
3.13437e-05
1.95601e-06
7.74233e-05
-8.67884e-05
-0.000106185
0.000124943
-3.2715e-06
3.75247e-05
9.61646e-05
-6.26927e-05
0.00019247
1.7439e-07
-0.000103404
-1.4643e-05
-7.02792e-05
0.000126965
-4.42558e-05
-3.12377e-05
-6.08346e-05
0.000185488
6.59458e-06
-2.88463e-05
2.55718e-06
-4.19507e-05
2.88815e-05
-7.87321e-05
-0.000245336
-4.55696e-06
1.41899e-06
-2.96715e-05
-0.000100694
6.97647e-05
9.95682e-05
2.10069e-05
9.20027e-05
0.000134083
6.70727e-06
-3.21708e-05
-1.05819e-05
0.000141856
-7.66045e-05
-3.0268e-05
-9.20403e-05
-5.64926e-05
-6.99646e-05
-1.04203e-06
-3.12675e-05
-1.03472e-05
-1.91762e-05
6.47362e-06
-1.19125e-05
1.19002e-05
-0.000124219
-0.000133447
2.95363e-05
2.01786e-05
7.01151e-05
-6.80154e-05
0.000112859
-5.64296e-05
-0.000102792
3.18146e-05
9.65784e-05
0.000142974
-0.00021521
-2.51558e-05
0.000155176
-7.0878e-05
-1.83494e-06
-9.00575e-05
-6.1238e-05
3.0627e-05
-2.73808e-05
0.000121417
-7.09179e-06
-0.00013656
5.42091e-05
-8.18307e-06
-8.82485e-05
-4.2076e-06
6.04574e-05
1.07288e-06
-0.000111191
-8.29693e-05
-0.000135972
-2.6123e-05
7.2001e-05
-0.000131597
2.96033e-05
2.2829e-05
-6.37446e-05
0.00025458
-1.29704e-05
-0.000103429
-5.66982e-05
-0.000126446
-7.45128e-06
9.49728e-05
-0.000134313
2.41231e-05
-7.8407e-05
9.75836e-05
3.62006e-05
9.45162e-05
2.1551e-05
-2.06127e-05
-3.88102e-05
-0.000148646
0.000226774
9.6369e-05
-7.63233e-05
2.87781e-05
8.77602e-05
-8.39315e-05
-2.8525e-05
0.00010019
-0.000145643
7.67789e-05
4.41065e-05
6.33273e-05
3.54645e-05
-4.70191e-05
6.01051e-05
0.000238689
-1.13718e-05
1.3281e-05
4.61284e-05
9.35653e-05
0.000111443
6.89395e-05
4.29254e-05
5.71761e-05
-0.000123357
-2.57513e-05
2.09776e-05
-7.54534e-05
-5.30498e-05
3.71714e-06
-4.13262e-05
0.000107549
-7.41164e-05
-8.38639e-05
3.1566e-05
-0.000155529
-4.05964e-06
8.19243e-05
7.88571e-05
8.92137e-06
-0.000158252
0.000104387
6.37078e-05
-9.68606e-05
8.46991e-06
-2.26422e-05
2.02245e-05
-5.80796e-05
-4.53767e-05
-0.000111838
-1.58466e-05
4.66686e-05
8.89634e-06
1.84821e-05
0.000207151
1.02583e-05
3.13813e-05
0.000133192
4.81968e-05
4.80294e-05
4.55589e-05
2.47974e-05
0.000182448
-2.09905e-05
-5.10684e-05
-0.000165661
-1.12366e-05
1.81834e-05
-8.31876e-05
-4.87242e-05
-7.1734e-06
6.01693e-06
-7.74848e-05
6.1496e-05
8.30097e-05
5.09627e-05
-9.22196e-06
-1.73699e-05
4.86057e-06
0.000144272
-9.19845e-05
-0.000114029
-6.52783e-05
-1.09936e-05
8.56707e-05
-5.85453e-07
-1.54504e-05
0.000174422
0.000100694
-6.3209e-05
-0.0001399
1.76432e-05
-7.06054e-05
3.54815e-05
-0.000141505
8.52002e-05
7.95142e-05
-0.000127984
1.78958e-05
4.63219e-05
0.000139066
-4.06974e-05
-0.000219237
1.18928e-05
6.91265e-05
0.000103412
3.01388e-05
1.81206e-05
-8.48222e-05
-2.7794e-05
-3.61353e-05
-4.225e-05
2.46969e-05
-0.000103875
-0.000121247
-1.83886e-05
-5.68036e-05
-0.000118191
-0.000102747
9.25113e-05
2.27755e-05
1.13467e-05
-0.000100635
-2.48381e-05
-9.26377e-05
3.89394e-05
5.67286e-05
-3.55968e-05
7.58737e-05
0.000112991
2.82427e-05
-6.0635e-05
1.33619e-05
-4.06096e-05
-1.77711e-05
8.73173e-05
-0.000233145
-0.000133022
0.000155851
-4.31322e-05
-1.50559e-05
-9.80089e-06
-1.25052e-05
3.9553e-05
-6.42722e-05
3.49199e-06
-0.000116738
-9.34466e-06
2.47868e-05
7.48532e-05
-0.000201997
-7.66102e-05
5.21204e-05
6.21411e-05
-2.86261e-05
-7.18144e-05
-8.0175e-05
-4.28616e-05
9.60915e-06
-5.67324e-05
-7.19775e-05
-4.84581e-05
1.45549e-05
0.000141873
0.00012703
1.97347e-06
9.00914e-05
5.61428e-05
-0.000165351
3.27246e-05
-6.42668e-05
9.19827e-05
-1.09896e-06
0.000159574
-1.11898e-05
-3.98192e-05
0.000106628
2.95399e-05
0.000145453
-0.000168277
-0.000103097
-5.23587e-05
4.49689e-06
2.28058e-06
6.18856e-05
-3.49613e-05
-0.000110268
8.1986e-05
-8.72053e-05
0.000166318
-0.000134454
4.82153e-05
-8.84768e-06
-3.29828e-06
7.42726e-05
-5.85737e-05
3.09362e-05
5.62752e-07
-9.50582e-05
6.60259e-05
-2.82363e-05
-8.4132e-05
-6.0437e-05
5.38505e-05
0.00025675
-0.000159862
2.50963e-05
3.6775e-05
-2.15393e-05
7.59182e-05
-7.97823e-05
0.000149188
-0.000147422
7.61396e-05
-3.72762e-05
2.41606e-05
-6.29654e-05
-3.29046e-05
1.48165e-05
-4.53113e-05
-8.09517e-05
-7.09491e-05
0.000223434
-8.89183e-05
-7.10958e-05
5.09383e-05
-0.000254145
2.66444e-05
0.000193971
1.40863e-08
6.41407e-05
-9.98838e-05
3.32803e-05
4.92505e-05
4.34162e-05
-0.000144352
7.0425e-05
-1.69687e-06
-0.000104599
-6.99656e-05
-2.57371e-06
3.46662e-06
0.000126864
-8.41726e-05
0.00011235
-7.54255e-06
7.81089e-06
-0.000189092
2.34593e-05
-8.62731e-06
-0.000121178
-2.05013e-05
-6.07874e-06
5.29641e-05
-0.000192091
-9.772e-05
-8.92789e-07
-9.43698e-06
-0.000140862
1.41957e-05
0.000150769
-2.41942e-05
-5.04702e-05
-0.000102181
-7.32185e-05
4.00087e-05
-8.40153e-05
-2.61993e-06
7.2165e-05
-5.01587e-06
-0.000208036
-5.41105e-05
5.78305e-05
3.01213e-06
-0.000111918
6.54079e-06
-5.46844e-05
-5.0874e-05
-0.000133588
3.31153e-05
-4.74148e-06
-5.7837e-05
1.08756e-05
-4.19096e-05
-7.33047e-05
-5.93816e-05
-6.37663e-05
-7.91914e-05
0.000179464
1.76671e-05
2.4175e-05
4.90122e-05
9.09177e-05
1.51545e-05
2.98349e-05
0.00012313
-3.18809e-05
-5.28051e-05
4.12746e-05
-3.41272e-05
3.4802e-05
5.96384e-05
4.79476e-05
4.51226e-05
-8.7588e-05
-0.000116376
0.000112258
0.000105033
5.79009e-05
-5.89757e-05
-0.000101084
-4.4935e-05
1.35779e-05
-8.03011e-05
-7.24148e-05
-5.80534e-05
-8.03941e-06
8.58203e-05
4.42256e-05
1.96764e-05
6.93052e-05
-1.14448e-05
4.66332e-05
0.000114619
6.3914e-05
2.45431e-05
1.20529e-05
-3.64084e-05
0.000183935
-4.00507e-05
-9.58396e-05
-7.97369e-05
-6.42387e-05
0.000156117
-6.3636e-05
-2.02823e-05
4.17326e-06
-4.45123e-05
7.46371e-05
4.88355e-05
-3.63681e-05
-0.000136864
2.26921e-05
8.50552e-05
-0.000120948
5.87198e-05
8.04808e-05
0.000141268
-9.6154e-05
-4.66133e-05
9.0152e-06
9.69367e-06
-7.78132e-05
-0.000100693
-1.29176e-05
-5.87935e-05
0.000103821
-6.09956e-05
8.94498e-05
9.45112e-05
-0.000128505
-4.94944e-05
-4.36888e-05
-7.08307e-05
-0.000152903
8.99583e-05
3.93861e-05
-3.43996e-05
8.36037e-05
-8.62684e-05
1.90382e-05
0.000105029
6.92391e-05
-0.00015256
-1.1123e-05
1.29406e-05
-3.5984e-05
-0.000109606
-9.22428e-06
4.99609e-05
-0.000108295
-2.22258e-05
0.000162948
-3.69205e-05
-8.13969e-05
7.08323e-05
7.32478e-05
-0.000151626
1.86787e-05
-8.27659e-05
0.000149286
0.000208639
-8.35502e-05
0.000200181
-0.000120059
-1.88107e-05
6.65955e-05
2.4403e-05
3.58019e-05
-2.18061e-05
2.20281e-05
9.15932e-06
-1.0189e-05
7.73016e-05
0.000114985
0.000149647
-0.00023387
-7.64146e-05
-7.88826e-05
-9.3493e-05
-2.89037e-05
-6.38497e-05
-1.02562e-05
6.80237e-05
8.0991e-05
-9.7729e-05
-4.77609e-05
2.20704e-05
-9.07271e-06
-7.34446e-05
-2.4792e-05
-5.54187e-05
-0.000158401
-0.000131674
-0.000131401
0.000161567
-3.50317e-06
0.000106311
6.27387e-05
8.72301e-05
2.11259e-05
-3.42301e-05
6.97582e-05
-0.000100716
-5.44623e-05
3.59348e-05
0.000133589
-0.000108584
-3.32652e-05
3.5422e-05
1.38133e-05
0.000106503
3.6929e-05
-6.15637e-05
1.43028e-06
3.04135e-06
-1.18783e-05
4.29847e-05
-0.000108531
5.9281e-05
-7.5167e-06
-9.04319e-05
0.000141919
-2.30515e-05
6.78888e-06
3.79235e-05
-0.000152062
4.06201e-05
5.02763e-05
0.000112594
0.000128136
-0.000125756
1.05309e-05
-5.09266e-05
2.98412e-05
2.57911e-05
-8.11837e-05
0.000115301
6.59632e-05
6.76943e-05
-0.000130827
-0.00011262
0.000101887
1.27067e-06
4.5331e-05
-8.13745e-05
-5.44186e-05
1.97908e-05
0.000133827
-0.000102773
2.49996e-05
2.97733e-05
-0.000129572
0.000129192
0.000223764
-9.91626e-05
3.28547e-05
-1.16029e-05
-8.31762e-05
-9.07928e-05
0.000253356
5.35445e-05
8.99073e-05
-1.28825e-05
1.56282e-05
-1.35126e-05
-6.9477e-05
0.000116717
6.96513e-07
-0.000128638
9.77188e-05
-3.59088e-05
7.80518e-06
-3.26311e-05
2.09024e-06
-0.000176927
3.63817e-05
8.55342e-05
3.70922e-06
-5.72652e-05
-6.51206e-05
3.48393e-05
7.93119e-05
-2.30512e-05
-9.24057e-05
0.000148317
2.08893e-05
-0.000112436
-1.74926e-06
2.79106e-05
0.000137689
2.49795e-05
9.28801e-05
-7.9181e-05
-3.03595e-05
-2.91762e-05
-9.09554e-05
2.60477e-05
5.7799e-05
-3.75831e-05
-1.97818e-05
0.000156924
1.18946e-05
-4.09654e-05
-4.77931e-06
6.18375e-05
3.51772e-05
-7.29749e-05
2.94539e-05
-4.75405e-05
-0.000199166
-5.49511e-05
0.00011342
1.65846e-05
0.000119958
-4.95455e-05
-5.48707e-05
-4.40066e-05
-0.00013232
-1.10681e-05
-3.26021e-05
2.95192e-05
-6.70102e-05
-5.68002e-05
4.42582e-05
0.000101565
-3.75578e-05
6.88519e-05
2.77113e-05
-1.8472e-05
6.67945e-06
2.38251e-05
-5.53911e-05
-4.54467e-05
-0.000216462
-2.11404e-05
-1.8084e-06
-2.24016e-05
-1.20922e-05
0.000100169
-2.95332e-05
-7.85103e-05
-5.64099e-05
3.54516e-05
-0.000122102
2.5357e-05
-5.1548e-05
-4.73848e-05
-0.000177943
9.9132e-05
-2.02776e-05
-9.05282e-05
-0.000160802
3.1586e-05
2.08626e-05
0.000123532
2.61997e-05
0.000129311
0.000128507
-0.000103171
0.000114865
-0.000114433
-0.000105036
8.2195e-05
2.43401e-06
-7.25688e-05
7.05032e-05
-7.86399e-05
6.73996e-05
-0.00012797
-0.000100283
-0.000118212
-7.90134e-05
0.000137716
0.000141568
9.92999e-06
7.1906e-05
0.00010033
2.52513e-05
1.47452e-06
8.82399e-05
5.75718e-05
-6.24536e-05
8.5199e-05
-0.000157948
1.81696e-05
-3.88618e-06
4.89351e-05
4.22923e-05
-0.000100306
-1.68732e-06
-1.68707e-05
0.000236001
-3.15236e-05
0.000154999
8.43903e-05
-0.000178591
-0.000125187
8.14857e-05
0.000228193
9.75169e-05
5.02612e-06
-2.93704e-05
-2.13406e-05
-8.04651e-06
0.000111529
1.97906e-07
1.4717e-05
2.26221e-05
-5.05626e-05
-1.86266e-05
-9.56483e-05
1.27167e-05
-6.36978e-06
-4.83727e-05
-0.000162495
-0.000150669
-0.000123185
-0.000130301
-0.000143541
2.7694e-05
-1.19656e-05
2.78476e-05
9.66763e-05
-0.000155889
-2.90858e-05
4.30581e-05
5.52196e-05
5.57833e-05
-7.19577e-05
8.21794e-05
3.17999e-05
-1.6143e-05
0.000118334
-3.50525e-05
6.98171e-05
5.22404e-05
-7.46018e-05
0.000128428
6.87913e-05
5.37096e-05
0.000164081
-6.8103e-06
5.29112e-05
6.0758e-05
0.00010507
-3.67898e-05
6.41255e-05
3.232e-05
1.7389e-05
-6.47983e-05
3.52541e-05
-5.44684e-06
-5.82708e-05
1.32605e-05
7.8961e-06
3.92029e-06
-6.19178e-05
-0.000115363
0.000189381
-7.03009e-05
3.24489e-05
-1.29218e-05
1.29635e-05
3.50391e-05
-3.84762e-05
-0.000227834
1.54441e-05
6.68492e-05
0.000208984
-0.000137775
-0.000119737
3.37954e-06
-6.67844e-05
5.28111e-05
0.000212002
-5.04097e-05
4.52353e-05
6.23981e-05
6.92636e-06
3.3339e-05
-6.37037e-05
-0.000141853
-8.25967e-05
-2.83278e-05
6.21281e-05
7.06126e-05
-5.41137e-05
7.35447e-05
-7.91077e-05
-5.05355e-05
-4.26946e-05
-7.86115e-05
0.0001346
8.86398e-06
2.62028e-06
-3.53691e-05
-5.9427e-05
3.82786e-05
0.000139264
3.07458e-05
7.92183e-06
-4.54554e-05
9.6646e-05
-7.32993e-05
5.74498e-06
0.000131036
-4.60166e-05
6.88416e-05
1.54728e-05
-8.83698e-05
-5.20657e-05
1.93807e-05
-2.46967e-05
-0.000105775
5.53711e-05
8.18245e-05
-1.16577e-05
7.75491e-05
-7.53812e-05
1.98967e-05
-6.5505e-05
8.65606e-05
-3.59196e-05
3.04584e-05
-5.88947e-05
9.53022e-06
8.25464e-05
7.46213e-05
0.00012271
-5.17641e-05
-0.000140594
0.00019018
9.2109e-06
3.64257e-05
9.16629e-05
-3.47006e-05
4.36617e-05
3.07767e-05
-0.000150938
-8.95243e-05
0.000129958
-3.13126e-05
-7.87963e-05
6.66198e-06
-1.89361e-06
5.44356e-05
-0.000157931
6.44324e-05
4.38909e-06
3.60435e-05
-2.89264e-05
8.61718e-05
-1.95209e-05
0.000125604
-4.93159e-05
-0.000227412
-8.44896e-05
5.98039e-05
9.87019e-05
1.23552e-05
-5.95483e-05
-9.3849e-05
-3.7991e-06
9.86282e-06
2.55558e-05
-2.09049e-05
5.29059e-05
0.000165624
1.71978e-05
-1.62059e-05
8.63126e-05
9.68995e-05
0.000138409
-7.13125e-05
-9.83442e-05
-0.000187773
5.00737e-05
-0.000108282
-4.20373e-05
5.10599e-05
-1.11756e-05
-0.000140329
-4.61563e-05
9.76487e-05
1.93319e-06
0.000108967
-0.000172523
9.25374e-06
-0.000121085
-5.38625e-05
0.000162285
6.13241e-05
-2.99661e-05
7.61804e-05
0.000115906
-6.37937e-05
3.29332e-05
2.14529e-05
-4.1126e-06
5.75271e-05
2.30666e-05
2.59974e-05
-0.000109766
-5.54884e-05
-8.38342e-06
2.87626e-05
9.90402e-05
-4.36299e-05
1.81708e-05
-0.000169497
6.91155e-05
0.00012983
-9.32174e-05
-1.71876e-05
-6.78559e-05
-1.37767e-05
-2.54693e-05
4.15121e-05
2.24677e-05
-9.0669e-05
2.38989e-06
2.23623e-05
-1.01803e-05
-2.06262e-05
8.91825e-05
-1.04972e-06
-7.01814e-05
6.7712e-05
-0.000114379
0.00017775
6.0708e-05
-6.39325e-05
-4.53339e-05
-9.15682e-05
5.09651e-05
0.000144512
3.63751e-06
9.31486e-06
-4.95989e-05
-2.26521e-05
-0.000135984
6.17018e-05
-8.23089e-05
-2.61462e-05
6.40769e-05
-3.31932e-05
3.07765e-05
8.76582e-05
-0.000151893
-5.16763e-05
1.66295e-05
-6.09262e-05
-0.000119047
6.81181e-05
1.12382e-05
-9.24431e-06
-5.53959e-05
0.000118444
-2.72864e-05
-0.000138147
4.61021e-05
4.37256e-06
3.1558e-05
-5.22429e-05
-7.02608e-05
5.66058e-05
0.000132813
0.000165444
0.00012442
5.91399e-05
-9.197e-05
1.81687e-05
6.40913e-06
8.7154e-05
4.34434e-05
8.68461e-05
-6.83205e-05
2.92055e-05
-3.11069e-05
2.90945e-05
7.03549e-05
-7.91653e-05
0.000121496
1.4635e-05
-3.86849e-05
-5.53845e-05
-9.60238e-05
0.000150604
4.09504e-05
-7.54476e-05
-6.59029e-05
3.99823e-05
-3.86501e-05
0.000112857
-0.000197858
4.93138e-05
-6.38686e-05
-1.7704e-05
-2.65976e-05
-0.000101566
-1.8475e-05
-3.32674e-05
-1.24198e-05
-1.43057e-05
2.1155e-06
-3.65267e-05
2.22864e-05
-5.77046e-05
0.000197708
-0.000151495
-5.89497e-05
0.00013778
2.68318e-05
-9.80289e-05
-0.000124932
3.11432e-05
-1.91443e-05
1.89804e-06
9.94831e-05
0.00023289
7.02445e-05
-0.000154902
-8.72561e-05
0.000162866
4.77803e-06
-3.19141e-06
2.80289e-05
5.15268e-05
2.49967e-05
0.000113019
-0.00010313
6.4288e-06
-6.80697e-05
5.21248e-05
9.9809e-05
3.75335e-05
-1.25122e-05
2.7868e-05
-0.000175121
-3.98161e-05
0.000127756
5.7132e-06
-4.73845e-06
2.4218e-05
-0.000104495
-2.66114e-06
-0.000126257
-6.1329e-05
4.57137e-05
-2.78153e-05
7.88628e-05
0.000187592
0.000142461
-7.18029e-05
3.68713e-05
-7.99713e-05
-9.76787e-05
8.35126e-05
-7.66614e-05
1.73708e-05
3.88213e-05
3.76342e-05
-6.60974e-05
-4.90412e-05
-7.54802e-06
-0.000157611
7.44857e-05
0.000110231
0.000165343
-0.000116037
5.68123e-05
2.02926e-05
-4.26093e-05
4.47263e-05
-3.47779e-05
-3.89838e-05
-7.47688e-05
4.80479e-05
9.04489e-05
-5.58108e-05
-1.13853e-05
3.43565e-06
0.000201405
-5.2454e-05
6.94708e-05
-1.13552e-06
-8.97855e-05
6.21262e-06
-1.40303e-05
-5.95945e-05
3.46325e-05
0.000132578
-3.57158e-05
3.0438e-05
0.000111535
1.88511e-05
-1.74164e-05
-4.32122e-05
-1.18217e-05
-1.31933e-06
2.33714e-05
-2.01706e-05
-7.93707e-05
0.000145506
1.79218e-05
-2.63036e-05
-3.20199e-05
7.61126e-05
-8.72673e-06
-0.000197836
-0.000123453
2.00715e-05
4.62934e-05
0.000133335
-1.32765e-05
2.91369e-05
4.53093e-05
-3.26462e-05
-4.05906e-05
0.00012126
6.0939e-05
1.83126e-05
-6.41078e-05
8.71442e-05
-3.52127e-05
-2.23258e-05
2.69903e-05
-0.000210486
0.000114812
-9.1057e-05
0.00014374
1.79431e-05
1.02354e-05
-2.47064e-05
8.52563e-05
0.000171645
-1.39989e-05
-7.11631e-05
-7.28322e-05
5.84442e-05
5.29923e-05
6.56095e-05
-9.69054e-05
-1.35744e-05
0.000129801
0.000239294
-4.43286e-05
3.97889e-05
-1.95487e-05
9.60256e-05
-3.60283e-05
-0.000116182
-2.88163e-05
-4.16207e-05
0.000108467
7.31414e-06
2.43825e-05
-3.95869e-05
-9.52769e-05
0.000234467
8.88015e-05
5.22874e-05
7.42772e-05
6.16392e-05
-4.0097e-05
-8.55417e-05
-0.000195942
-9.62389e-05
-2.46788e-05
4.10401e-05
7.28231e-05
-1.15088e-05
0.000226808
0.000109815
-0.000132022
-9.46294e-06
7.56362e-05
-8.9485e-06
3.65067e-05
0.000156297
0.000201727
3.54768e-05
0.00015469
-1.7944e-05
9.59339e-05
9.93996e-05
-0.000144887
-0.000179458
-5.57556e-05
-0.000112793
4.62696e-05
9.80368e-06
-3.30921e-05
-6.04563e-05
4.98875e-06
6.31221e-05
-4.55345e-05
8.08996e-05
-4.53433e-05
-5.27856e-05
-3.14554e-06
-3.57055e-05
-9.53011e-06
-6.9504e-05
0.000112653
3.84289e-05
3.97172e-05
0.00011879
0.000150988
-1.51481e-05
-7.94138e-05
9.34897e-06
-0.000194301
9.04908e-06
0.000121529
0.000118377
1.48942e-05
-4.72448e-05
-0.000137434
9.47146e-05
7.65388e-05
2.43279e-05
-5.1956e-05
-9.07071e-05
-7.84025e-05
-0.00013318
0.000166111
0.000142645
-1.28022e-05
-6.76466e-06
6.35246e-05
-0.00016043
6.1154e-05
6.39409e-05
-4.49235e-05
-0.000135077
6.33213e-05
-1.69163e-06
7.03939e-05
-3.51341e-06
2.15791e-05
-9.54929e-05
4.52856e-08
3.93006e-06
-0.000138938
-4.66087e-05
-2.13991e-05
3.8251e-05
4.52858e-05
-5.1139e-05
-4.63855e-05
-3.81473e-05
-3.43003e-05
0.000192354
7.41845e-05
0.000221835
0.000152335
-0.000181402
7.7131e-05
-2.89916e-05
-3.5278e-05
-1.87597e-05
3.99144e-05
7.15946e-05
0.00011
-1.746e-05
4.86126e-05
1.13389e-07
-2.96722e-05
-2.07219e-08
3.66989e-05
7.5239e-05
-6.67826e-05
-0.00012009
0.000114192
-8.33061e-05
0.000195565
-3.68108e-05
-4.92427e-05
-4.45821e-05
-6.7284e-05
-4.47981e-05
5.05158e-05
9.99533e-05
-0.000119873
-7.21816e-05
3.08806e-05
1.09179e-05
-6.43216e-05
-1.27673e-05
0.000136611
2.14309e-05
-8.01787e-05
0.000107603
-1.9524e-06
1.55647e-05
-0.000126493
-4.68822e-05
8.12869e-05
-2.08911e-05
-8.32623e-05
0.000186634
0.000197409
5.88673e-05
-0.000151033
-0.000109854
-0.000144197
-1.88318e-05
-2.3338e-05
9.07426e-05
0.000110765
8.38307e-07
0.000269337
6.3593e-06
-0.000178776
4.82053e-05
7.14092e-07
4.82122e-06
-7.97906e-05
-8.61995e-05
-1.99098e-05
-4.88927e-05
9.4809e-05
-7.22473e-07
0.000105487
-5.55773e-05
-3.23025e-05
-5.79772e-06
7.00364e-05
-2.66411e-05
5.87758e-06
2.30992e-05
-2.69382e-05
-3.54314e-05
0.000121423
-0.00019233
6.66257e-05
5.33484e-05
-3.13583e-05
-0.000112701
3.98422e-05
8.37328e-05
-0.000135248
-0.000129601
-3.15751e-05
-7.25344e-05
9.45916e-05
8.67742e-05
-0.000117806
-4.82253e-05
2.83634e-06
-0.000207579
2.65404e-05
0.000114953
2.7722e-06
-5.15217e-05
9.7006e-05
0.000128563
-5.79399e-05
4.13865e-05
8.48338e-05
-4.584e-05
-9.13241e-05
0.000140747
2.60652e-05
-9.71522e-05
7.65487e-05
1.62686e-05
-0.000120146
-0.000104043
-4.25782e-05
0.000110973
2.52869e-05
-0.000134327
-6.40895e-05
0.000116879
5.98415e-05
-7.31118e-05
3.84441e-05
-2.63028e-05
-4.34947e-05
-9.02766e-05
2.12614e-05
-6.14579e-05
0.000181006
6.66182e-05
-0.00014922
-9.56736e-06
0.000104834
8.10268e-05
3.1744e-05
-2.58493e-05
-5.59185e-05
1.56061e-05
-4.15964e-05
4.94546e-05
-7.84525e-05
-0.0001203
1.88592e-05
3.40242e-05
-0.000102925
-9.41436e-05
-6.72648e-05
-2.04021e-05
-4.34602e-05
1.14387e-05
7.69983e-05
-0.00020248
-7.01286e-06
5.69589e-05
0.000138872
2.73646e-06
-1.34443e-05
0.000141716
-9.78189e-05
-1.75687e-05
-0.000114249
-4.51761e-06
0.000133411
-1.63737e-05
2.38845e-05
0.000114089
-1.51454e-05
5.78037e-06
-5.89266e-05
0.000106519
-0.000110708
6.32808e-05
0.000123234
-7.2535e-05
-4.84334e-06
4.08351e-05
-9.35455e-06
-0.000105669
-4.5579e-05
0.000124542
-6.00487e-05
-4.19326e-05
-0.000133914
-2.70049e-05
-2.51991e-05
5.45662e-06
-5.03613e-06
-7.69207e-05
6.50471e-06
0.000116326
0.000127374
0.000166731
-1.05565e-05
-0.000206479
0.000182522
7.48386e-05
-2.78914e-05
7.52546e-05
-4.91736e-05
-1.85495e-05
-1.14242e-05
3.40784e-05
-3.84295e-05
-7.33606e-05
8.69255e-05
6.50196e-05
-9.85952e-05
-5.78456e-06
-1.07904e-05
-5.80209e-05
-9.20603e-05
2.76715e-05
-8.15354e-05
-7.98199e-05
2.13583e-05
0.000112224
9.84109e-05
7.53235e-05
-0.000211936
0.000163681
-7.1971e-05
4.48036e-06
-3.96578e-05
5.87143e-05
3.47935e-05
3.47581e-05
2.93545e-05
4.70446e-06
5.54372e-05
-1.48616e-06
-0.000124395
-3.48326e-06
-5.07146e-05
-2.09997e-05
0.000129396
-2.92574e-05
2.09177e-05
-7.05537e-05
-0.000171928
-3.46855e-05
0.000154134
-4.65246e-05
0.000150401
-1.40688e-05
2.78038e-05
-4.51301e-05
9.39472e-06
0.000141183
3.29126e-05
-4.06131e-05
6.58382e-05
3.87591e-05
-2.93374e-05
-3.00345e-05
-5.72286e-06
6.48906e-05
-3.88515e-05
0.000130689
-4.96432e-05
7.59357e-05
-3.69507e-05
9.97796e-06
-6.46464e-05
3.62757e-05
-2.4982e-05
-3.81782e-05
1.75791e-05
-6.32813e-05
-6.81193e-05
7.20699e-05
-4.26059e-05
-4.93641e-05
-9.92032e-05
-0.000139118
9.7518e-05
-3.39865e-05
-0.000114887
-0.000112189
4.04845e-05
-2.15921e-05
-4.61722e-05
0.000109451
7.06455e-05
-4.02326e-05
6.59096e-05
-3.0046e-05
4.02905e-05
0.000171771
-0.000140593
-0.000213176
-5.79011e-05
-5.55324e-06
6.44499e-05
-0.000166967
8.32402e-05
7.40776e-05
-5.5806e-06
1.56965e-05
0.000152073
4.79021e-05
2.48021e-05
-1.09859e-05
-6.54357e-05
-9.80825e-05
-5.30049e-05
-2.28534e-05
0.000155693
6.3809e-05
4.59804e-05
-3.64105e-05
-0.000112674
-4.98451e-05
1.40641e-05
6.13066e-06
-2.21182e-05
3.62452e-05
6.27337e-05
2.96992e-05
7.35475e-05
-3.08979e-05
-8.75967e-05
1.02585e-06
0.000234072
-6.07654e-05
-8.99269e-05
4.31332e-05
9.36028e-05
4.04282e-05
-5.69946e-06
-7.08201e-05
-1.62116e-05
-8.73024e-05
-9.1234e-05
7.18283e-06