# vtk DataFile Version 1.0
Net Charge Density
ASCII
DATASET STRUCTURED_POINTS
DIMENSIONS 256 128 1
ORIGIN 0 0 0
SPACING 0.15625 0.15625 1
POINT_DATA 32768
SCALARS rhonet float
LOOKUP_TABLE default
-8.89965e-05
-0.00016443
6.73251e-05
0.000180924
3.86266e-06
0.000191473
3.31746e-05
-3.29298e-05
0.000211425
0.00020405
2.30237e-05
0.000279595
0.000127751
-0.000183836
-0.000216213
0.000243326
0.000142678
-9.87001e-05
-2.87005e-05
2.38954e-05
4.87675e-06
0.000126141
-8.77728e-05
5.35577e-05
9.73927e-05
2.47741e-05
7.28209e-05
7.33131e-05
0.000266094
4.45558e-05
-0.000187995
-0.000141228
0.000138519
0.000197821
4.20047e-05
0.000104592
0.000146123
-7.05898e-05
3.89592e-05
2.23196e-05
0.000178941
0.00013508
8.85108e-05
0.000102748
0.000125256
6.33788e-06
2.51117e-05
8.20986e-05
5.31514e-05
0.000119897
0.000161602
-1.1104e-05
0.00015061
0.000179719
-9.16779e-05
-3.29588e-05
-3.99989e-05
0.000187685
0.000135206
0.000108327
-0.000173156
0.000276285
0.000165612
-3.84382e-05
-0.000121113
5.01914e-05
-8.66069e-05
0.000157549
1.51981e-05
-7.60974e-05
-6.64493e-05
-0.000151567
-3.4168e-05
0.000301609
7.66133e-05
-4.76975e-05
6.83871e-05
0.000145776
6.34153e-05
1.53662e-05
-0.000111346
-6.43473e-05
0.000307742
0.000107895
0.000156533
0.000151515
0.00018837
-0.000153581
0.000203115
0.00031454
8.4719e-05
-5.67464e-05
3.65078e-06
4.21897e-05
-1.1771e-05
0.000185572
-6.01255e-05
9.25153e-05
-0.000105055
0.000513904
0.000181121
-4.0647e-05
0.000103039
-1.57751e-05
1.81864e-05
0.000185246
1.56634e-05
-3.30394e-05
3.95838e-05
-5.65072e-05
9.67321e-05
0.000135004
-7.10149e-05
-0.000116246
-0.000293087
-1.20508e-05
0.000196575
0.000161801
1.39734e-05
-0.000188641
5.74628e-05
1.23903e-05
6.46161e-05
4.70164e-05
1.39868e-05
-2.69527e-05
8.53458e-05
2.44343e-05
0.00018368
2.4826e-05
3.65495e-05
0.000122553
9.48429e-05
-3.0106e-05
9.04199e-05
5.78715e-05
0.00027915
0.000120273
0.000106483
-0.000217123
-4.58094e-06
6.54798e-05
-4.926e-06
4.93006e-05
-3.99719e-05
0.00010235
0.00016881
-3.912e-05
3.76487e-05
0.000252592
-8.82363e-05
-4.8202e-05
0.000177523
0.000274355
0.000128818
6.23011e-05
0.000135928
8.18423e-06
4.7741e-05
6.06261e-05
0.000130789
0.000107804
-8.37164e-05
9.65771e-05
-5.18438e-05
-0.000102245
0.000160799
0.000218389
0.000229294
4.46854e-05
-5.02176e-05
-2.03378e-06
-6.93242e-06
-3.22649e-05
9.88857e-05
0.000118853
0.000188594
-3.82812e-05
-0.000114186
9.3081e-05
0.000170248
0.000170585
-5.99469e-05
-0.000114894
3.01121e-05
0.000124835
0.000147016
0.000125632
0.000105981
0.000260402
0.000187682
0.000105557
7.29117e-05
-8.07224e-05
-0.000155445
0.00030499
0.000208997
3.3515e-05
0.000190698
6.13392e-06
7.67212e-06
1.51948e-05
0.000192277
8.82992e-05
-0.000104467
0.000146709
-5.74143e-05
-8.37957e-06
-8.24683e-05
0.000302362
-2.56734e-05
-0.00012002
0.00013921
0.000212545
-6.37467e-06
-5.47467e-05
3.51249e-05
5.77909e-05
4.46551e-05
0.000108325
-9.9318e-05
-0.000142599
0.000304249
8.5708e-05
-0.000139695
0.000208727
-8.71234e-05
6.99728e-05
-0.00020923
3.65508e-05
0.000211047
-0.000121397
-8.78271e-05
0.000243595
0.000104742
7.16866e-05
0.000175833
-8.41687e-05
0.000117093
0.000292925
3.00535e-05
-0.000198833
0.000113081
8.61068e-05
0.000117134
0.000126007
4.07925e-05
2.43263e-05
0.000117619
-7.49808e-06
6.64266e-05
-0.0001827
-1.10201e-05
-0.000116789
-5.03097e-05
0.000113211
9.38512e-05
7.11042e-06
-1.07288e-06
-0.000114282
1.30755e-05
-9.59644e-05
-0.00018783
-1.47216e-05
0.000141969
-0.000105543
-2.11769e-05
0.000159347
-6.05979e-05
-0.000104908
-0.000191295
-3.15245e-05
2.67865e-05
-8.83365e-05
2.81918e-05
6.03008e-05
-2.11125e-05
-0.000153984
-6.70948e-06
-0.000122243
-5.28994e-05
-0.000213783
8.63425e-05
2.43844e-05
1.329e-06
-1.46825e-05
-4.76748e-05
0.000114567
-3.24091e-05
-5.61192e-06
-1.98617e-05
-3.69207e-05
-3.48256e-06
-0.000116265
-5.25551e-05
-1.27149e-06
-2.64918e-05
-0.000104853
-3.60252e-05
8.13334e-05
-0.000105781
-0.000144953
7.52909e-05
4.1122e-05
-2.63748e-05
3.98702e-05
-9.31579e-05
4.86263e-05
8.55885e-07
4.31901e-06
-0.000119127
-7.30145e-05
6.05753e-05
2.74994e-05
-0.000101009
6.03886e-05
-2.35741e-05
-0.000135273
-4.44637e-06
1.76306e-05
-0.000143069
5.91767e-05
-6.20331e-06
4.06074e-05
8.06638e-05
-7.99194e-05
3.64548e-05
-5.82086e-05
-9.32394e-06
5.90804e-05
4.19957e-05
3.69137e-05
-4.1962e-05
-5.43675e-05
3.41024e-05
-4.67342e-05
-0.0001537
-6.71794e-05
6.00312e-05
-4.68122e-05
-3.43905e-05
-8.82398e-05
4.55751e-05
-0.000176052
1.1282e-05
-0.00015407
-0.000127912
-9.47628e-05
-6.21467e-05
-4.80892e-05
5.24875e-05
-3.36766e-06
-0.000122983
4.30981e-05
-0.000154294
6.54003e-05
-0.00010901
-7.15218e-05
-5.4653e-05
0.000123682
-2.69082e-05
3.08172e-05
-0.000163154
0.000118408
-4.62125e-05
-0.000235137
-5.7935e-05
-7.17838e-05
-0.000163478
5.96766e-05
1.61477e-05
-7.24099e-05
2.98854e-05
-4.80518e-05
-4.5863e-05
-7.19615e-05
-3.38636e-05
-0.000109087
7.39484e-05
9.9036e-05
3.75016e-05
8.90733e-05
1.56958e-05
-6.0279e-05
2.84289e-05
-7.58178e-05
-6.37138e-05
0.000168836
-6.88587e-05
-0.000162257
2.2782e-05
1.59489e-06
-7.45541e-05
-0.000121428
-1.77743e-06
-0.000190662
0.00010786
0.000110056
-2.80031e-05
-1.88083e-05
-0.000179983
-8.3526e-05
9.678e-05
8.11368e-06
6.51631e-05
0.000115119
-8.75533e-05
-5.66706e-05
4.48846e-05
-0.000137129
-9.15065e-05
-0.000117078
7.77823e-05
-6.16324e-05
-7.80415e-05
-4.38611e-05
6.10386e-05
-0.000105036
5.42324e-05
3.28156e-05
8.6277e-05
-5.37978e-05
-4.06351e-05
1.56845e-05
-4.02805e-05
-0.000211141
2.38115e-05
0.000203273
-1.5074e-05
4.13629e-05
-8.67896e-05
-6.52755e-05
3.89038e-05
-0.000102638
1.51226e-05
-4.97354e-05
-2.76995e-05
2.26521e-05
-3.52245e-05
-0.000176034
-0.000125343
-3.13101e-05
-3.6601e-07
-0.000170566
-4.75529e-05
-5.78195e-05
-0.000183783
-2.11976e-05
5.88746e-05
5.74079e-06
-3.58104e-05
-5.21925e-06
-8.06737e-05
-0.000193738
-0.000104422
-3.91722e-05
4.23503e-05
-9.05202e-05
-7.62015e-05
-8.528e-06
0.00014616
-0.000152342
-5.9685e-05
9.52e-05
-0.000116926
9.23368e-05
-9.78985e-05
-1.47186e-05
0.000151848
2.37793e-05
-7.93705e-05
-2.82907e-05
-1.92884e-05
-2.44337e-05
-0.000142312
0.000105529
4.18111e-05
1.36641e-05
-1.15992e-05
-2.0469e-05
-2.06172e-07
-1.97636e-05
2.11215e-05
0.000109334
-0.000261437
4.28499e-05
4.0064e-05
-7.67006e-05
-6.17967e-05
-1.02732e-05
-0.000159574
-8.18924e-05
7.35668e-05
-4.22969e-05
9.23139e-06
-1.98811e-05
9.94583e-06
-8.8755e-07
-5.61634e-05
-3.99557e-05
-5.35061e-05
-0.000102719
9.00064e-05
-0.000219845
-0.000120906
-5.90219e-05
4.97613e-05
-3.80762e-05
-1.36702e-05
-2.83041e-06
-8.34801e-05
1.19554e-05
-7.01742e-05
-3.1739e-05
1.34769e-05
5.83428e-05
-0.000137647
-8.99403e-05
0.000151386
1.51155e-05
-6.14137e-06
-0.000129065
3.11774e-05
0.000173844
-0.000137103
4.43447e-05
0.000100966
9.51393e-06
9.34268e-06
4.56318e-05
-4.52998e-05
0.0002318
-1.659e-05
-9.65691e-05
0.000247102
-6.24574e-05
-9.62126e-05
4.41666e-05
-6.78143e-05
-9.39947e-05
-3.89076e-05
6.94154e-05
5.60177e-05
3.48884e-05
-0.000183194
5.50055e-05
9.5517e-05
2.66578e-05
-3.396e-05
0.000120548
5.00353e-06
-7.52762e-05
0.000127643
-7.99589e-05
-8.1134e-05
-0.000202426
6.1707e-05
-9.95558e-05
-5.43232e-05
-5.94811e-05
-9.60125e-05
0.000116062
-0.000147445
1.1493e-05
-7.43308e-05
0.000155804
7.66398e-05
-6.99931e-05
7.37108e-05
-2.04372e-05
-8.95965e-05
9.62394e-05
-3.38348e-05
-3.49059e-05
4.17575e-05
0.000162894
3.63595e-05
8.77912e-05
-3.58353e-05
-2.20579e-05
-3.02284e-06
-1.37123e-05
3.0427e-05
5.12846e-05
-1.66396e-05
-6.64192e-05
-0.000106226
-3.41022e-05
-0.000114615
-1.21311e-05
2.69827e-05
0.000152796
4.25638e-05
-6.62486e-05
1.30309e-05
0.000125127
-3.36288e-05
0.000125025
-3.74271e-05
-0.000105816
-9.70286e-05
0.000180478
2.01126e-05
3.31975e-05
4.16907e-05
0.000125363
-0.000130524
0.000146989
3.85046e-05
-9.22036e-05
-5.52728e-06
-2.88952e-05
-7.75098e-05
-0.00016559
-6.21087e-05
8.7323e-05
0.00013541
-5.54549e-05
8.27904e-05
8.54186e-05
0.000115635
-8.6287e-05
4.55807e-05
0.000119126
0.000184091
2.4063e-06
0.000137161
5.34616e-05
5.22609e-05
5.6846e-05
0.000167474
-5.51222e-05
-1.33791e-05
-4.05203e-05
-0.00012564
6.85598e-05
-1.32682e-05
3.22419e-05
-2.87498e-05
-4.65672e-05
-8.74825e-05
-7.05926e-05
7.68013e-05
-9.85496e-05
4.49256e-05
-7.86616e-05
9.82091e-05
-0.000145106
-0.000182992
0.000104832
-1.31577e-05
-7.55028e-05
0.000210965
-6.38559e-05
8.74364e-05
0.000118602
-0.000142687
0.000153399
0.000188842
-0.000133898
-3.04494e-05
-8.05345e-05
-1.98926e-05
-2.80347e-05
5.00237e-05
-0.000123372
-0.000185927
2.17026e-05
2.22625e-05
-4.22008e-05
8.28356e-05
-0.000114716
-1.4395e-05
-3.40616e-05
-0.00010146
3.6577e-05
-5.14563e-05
0.000108135
-1.38627e-05
-8.48668e-05
1.70886e-05
0.000166329
4.8256e-05
-0.000137476
-0.000130724
-9.48529e-06
4.53349e-05
-0.000128979
5.08635e-05
1.61456e-05
-0.000157478
0.000116753
-5.86517e-05
-9.88645e-06
2.70256e-05
5.98142e-05
5.8868e-05
7.47681e-05
-2.03853e-05
6.78027e-05
-9.19695e-05
-5.69015e-06
-0.000144547
0.00017434
-1.03794e-05
-3.03972e-06
3.54419e-05
7.37599e-05
5.43423e-05
-7.24926e-05
-4.39929e-05
-3.61347e-05
2.63094e-05
0.000149055
6.77112e-05
-0.000108175
2.75439e-07
-0.000102251
0.000191155
-4.9232e-07
2.48828e-05
1.41289e-05
-5.52987e-05
-0.000112945
1.64525e-05
5.99892e-05
-0.000104574
-2.01637e-05
-2.06161e-05
-2.06784e-05
2.71747e-05
3.29525e-05
9.95216e-05
-4.5678e-05
-3.4027e-06
3.48251e-05
5.44946e-05
4.12608e-05
0.000162435
-7.5497e-05
-7.04982e-05
-8.71019e-07
0.000148986
8.32417e-05
6.136e-05
7.60475e-05
-1.61112e-05
-8.15617e-06
0.000102876
4.52762e-05
3.04834e-06
1.0299e-05
9.89577e-05
-6.89168e-05
3.38091e-05
7.086e-05
-5.0083e-05
-0.000160351
2.85009e-05
-3.94695e-05
0.000187724
0.000159625
2.64987e-05
9.43411e-05
4.62711e-05
5.01296e-06
-5.53299e-06
0.000166531
-0.000108887
6.76441e-05
7.97848e-05
2.64239e-05
-3.33125e-05
-3.69875e-05
0.000154182
-0.000138618
-8.34811e-05
3.13434e-05
1.95624e-06
7.74231e-05
-8.67886e-05
-0.000106185
0.000124944
-3.27185e-06
3.75248e-05
9.61653e-05
-6.26928e-05
0.00019247
1.75205e-07
-0.000103404
-1.46434e-05
-7.02791e-05
0.000126966
-4.42553e-05
-3.12373e-05
-6.08343e-05
0.000185488
6.59458e-06
-2.88454e-05
2.55753e-06
-4.19512e-05
2.8881e-05
-7.87326e-05
-0.000245336
-4.55766e-06
1.41922e-06
-2.9671e-05
-0.000100693
6.97644e-05
9.95679e-05
2.10075e-05
9.20021e-05
0.000134083
6.70762e-06
-3.21704e-05
-1.0582e-05
0.000141856
-7.66035e-05
-3.02684e-05
-9.20403e-05
-5.64924e-05
-6.99647e-05
-1.04215e-06
-3.12675e-05
-1.03468e-05
-1.91764e-05
6.47316e-06
-1.19123e-05
1.18997e-05
-0.00012422
-0.000133447
2.95362e-05
2.01782e-05
7.01149e-05
-6.80155e-05
0.000112859
-5.64299e-05
-0.000102792
3.18143e-05
9.65795e-05
0.000142974
-0.00021521
-2.51562e-05
0.000155176
-7.08781e-05
-1.83471e-06
-9.00578e-05
-6.12384e-05
3.06271e-05
-2.73807e-05
0.000121418
-7.0919e-06
-0.00013656
5.42089e-05
-8.18295e-06
-8.82488e-05
-4.2069e-06
6.04573e-05
1.07265e-06
-0.000111191
-8.2969e-05
-0.000135973
-2.61223e-05
7.2001e-05
-0.000131596
2.96028e-05
2.28289e-05
-6.37443e-05
0.00025458
-1.29701e-05
-0.000103429
-5.66974e-05
-0.000126446
-7.45105e-06
9.49726e-05
-0.000134313
2.41231e-05
-7.8407e-05
9.75839e-05
3.62003e-05
9.45167e-05
2.1551e-05
-2.06133e-05
-3.88101e-05
-0.000148647
0.000226775
9.63688e-05
-7.6323e-05
2.87786e-05
8.77602e-05
-8.39324e-05
-2.8524e-05
0.00010019
-0.000145643
7.67794e-05
4.41063e-05
6.3327e-05
3.54642e-05
-4.7019e-05
6.01048e-05
0.000238689
-1.13713e-05
1.32811e-05
4.61281e-05
9.35653e-05
0.000111444
6.89398e-05
4.29256e-05
5.7176e-05
-0.000123357
-2.57511e-05
2.09778e-05
-7.54532e-05
-5.30498e-05
3.71702e-06
-4.13264e-05
0.000107549
-7.41156e-05
-8.3864e-05
3.15658e-05
-0.000155529
-4.05894e-06
8.19245e-05
7.88568e-05
8.92137e-06
-0.000158251
0.000104388
6.37076e-05
-9.68606e-05
8.46991e-06
-2.26418e-05
2.02247e-05
-5.80795e-05
-4.53766e-05
-0.000111838
-1.58468e-05
4.66688e-05
8.89611e-06
1.84815e-05
0.000207151
1.02583e-05
3.13814e-05
0.000133191
4.81971e-05
4.80297e-05
4.55593e-05
2.47977e-05
0.000182448
-2.09906e-05
-5.10679e-05
-0.00016566
-1.12369e-05
1.81827e-05
-8.31877e-05
-4.87242e-05
-7.17351e-06
6.01646e-06
-7.74841e-05
6.1496e-05
8.30099e-05
5.09629e-05
-9.22196e-06
-1.73694e-05
4.86081e-06
0.000144273
-9.19843e-05
-0.000114029
-6.52785e-05
-1.09927e-05
8.56709e-05
-5.85453e-07
-1.54508e-05
0.000174422
0.000100694
-6.32092e-05
-0.0001399
1.76433e-05
-7.06059e-05
3.54816e-05
-0.000141505
8.52002e-05
7.95139e-05
-0.000127984
1.78963e-05
4.63222e-05
0.000139067
-4.06972e-05
-0.000219237
1.18936e-05
6.91261e-05
0.000103412
3.01391e-05
1.81207e-05
-8.48225e-05
-2.77943e-05
-3.61352e-05
-4.22501e-05
2.46972e-05
-0.000103875
-0.000121247
-1.83883e-05
-5.68029e-05
-0.000118191
-0.000102746
9.25118e-05
2.27755e-05
1.13465e-05
-0.000100635
-2.48381e-05
-9.26368e-05
3.89394e-05
5.67288e-05
-3.55963e-05
7.58736e-05
0.000112991
2.82421e-05
-6.06355e-05
1.33615e-05
-4.06096e-05
-1.77709e-05
8.73166e-05
-0.000233146
-0.000133023
0.000155852
-4.31323e-05
-1.50562e-05
-9.80089e-06
-1.25052e-05
3.9553e-05
-6.42722e-05
3.49164e-06
-0.000116738
-9.34443e-06
2.47869e-05
7.48533e-05
-0.000201997
-7.66099e-05
5.21198e-05
6.21413e-05
-2.86256e-05
-7.18145e-05
-8.01745e-05
-4.2862e-05
9.60904e-06
-5.67323e-05
-7.19777e-05
-4.84582e-05
1.45551e-05
0.000141873
0.000127031
1.97371e-06
9.00918e-05
5.61427e-05
-0.000165351
3.27248e-05
-6.42666e-05
9.19823e-05
-1.09896e-06
0.000159573
-1.11901e-05
-3.98196e-05
0.000106628
2.95397e-05
0.000145453
-0.000168276
-0.000103097
-5.2359e-05
4.49643e-06
2.28081e-06
6.18858e-05
-3.49614e-05
-0.000110267
8.19861e-05
-8.72051e-05
0.000166318
-0.000134454
4.82148e-05
-8.84733e-06
-3.29828e-06
7.4273e-05
-5.85739e-05
3.09364e-05
5.62519e-07
-9.50582e-05
6.60254e-05
-2.82362e-05
-8.41322e-05
-6.04369e-05
5.38505e-05
0.000256751
-0.000159861
2.50965e-05
3.67748e-05
-2.15392e-05
7.59185e-05
-7.97817e-05
0.000149189
-0.000147422
7.61398e-05
-3.72762e-05
2.41608e-05
-6.29656e-05
-3.29035e-05
1.48162e-05
-4.53118e-05
-8.09515e-05
-7.09492e-05
0.000223433
-8.89176e-05
-7.10959e-05
5.09383e-05
-0.000254145
2.66446e-05
0.000193971
1.43191e-08
6.41408e-05
-9.98838e-05
3.32806e-05
4.92504e-05
4.34162e-05
-0.000144352
7.0425e-05
-1.69664e-06
-0.000104599
-6.99656e-05
-2.57336e-06
3.46696e-06
0.000126863
-8.41728e-05
0.00011235
-7.54267e-06
7.8103e-06
-0.000189092
2.34591e-05
-8.62719e-06
-0.000121177
-2.05014e-05
-6.07828e-06
5.2964e-05
-0.000192091
-9.77202e-05
-8.92906e-07
-9.43721e-06
-0.000140862
1.41959e-05
0.000150768
-2.4194e-05
-5.04697e-05
-0.000102181
-7.32191e-05
4.00079e-05
-8.40154e-05
-2.61981e-06
7.21648e-05
-5.01564e-06
-0.000208036
-5.41101e-05
5.78305e-05
3.01201e-06
-0.000111918
6.54091e-06
-5.46844e-05
-5.08741e-05
-0.000133588
3.31152e-05
-4.74055e-06
-5.78372e-05
1.08755e-05
-4.19094e-05
-7.33049e-05
-5.93821e-05
-6.37663e-05
-7.9192e-05
0.000179464
1.76677e-05
2.41755e-05
4.90122e-05
9.09171e-05
1.51545e-05
2.98348e-05
0.00012313
-3.18808e-05
-5.28047e-05
4.12746e-05
-3.41269e-05
3.48024e-05
5.96384e-05
4.79477e-05
4.51226e-05
-8.75882e-05
-0.000116376
0.000112258
0.000105033
5.79008e-05
-5.89761e-05
-0.000101084
-4.49346e-05
1.35778e-05
-8.03011e-05
-7.24146e-05
-5.80535e-05
-8.03941e-06
8.58202e-05
4.42257e-05
1.96763e-05
6.93053e-05
-1.14447e-05
4.66336e-05
0.000114619
6.3914e-05
2.45433e-05
1.20531e-05
-3.64089e-05
0.000183935
-4.00508e-05
-9.58394e-05
-7.97368e-05
-6.42388e-05
0.000156117
-6.3636e-05
-2.02827e-05
4.17349e-06
-4.45123e-05
7.4637e-05
4.88354e-05
-3.63679e-05
-0.000136864
2.26914e-05
8.50555e-05
-0.000120948
5.87201e-05
8.04801e-05
0.000141268
-9.61539e-05
-4.66128e-05
9.01485e-06
9.69332e-06
-7.78125e-05
-0.000100692
-1.29174e-05
-5.87938e-05
0.000103821
-6.09953e-05
8.94497e-05
9.45111e-05
-0.000128505
-4.94942e-05
-4.36887e-05
-7.08307e-05
-0.000152902
8.99584e-05
3.93861e-05
-3.43991e-05
8.36034e-05
-8.62692e-05
1.90388e-05
0.000105029
6.92381e-05
-0.000152561
-1.11228e-05
1.294e-05
-3.5984e-05
-0.000109606
-9.22382e-06
4.99607e-05
-0.000108295
-2.22259e-05
0.000162948
-3.69207e-05
-8.1397e-05
7.08317e-05
7.32472e-05
-0.000151626
1.86786e-05
-8.27661e-05
0.000149286
0.000208639
-8.35498e-05
0.00020018
-0.000120059
-1.88109e-05
6.65959e-05
2.44031e-05
3.58017e-05
-2.1806e-05
2.20283e-05
9.15944e-06
-1.01897e-05
7.73018e-05
0.000114986
0.000149647
-0.00023387
-7.64142e-05
-7.88826e-05
-9.3493e-05
-2.89035e-05
-6.38497e-05
-1.02569e-05
6.80243e-05
8.09905e-05
-9.77289e-05
-4.77604e-05
2.20707e-05
-9.07225e-06
-7.34443e-05
-2.4792e-05
-5.54188e-05
-0.000158401
-0.000131674
-0.000131401
0.000161567
-3.5034e-06
0.000106312
6.27383e-05
8.72305e-05
2.11266e-05
-3.42298e-05
6.97578e-05
-0.000100715
-5.44623e-05
3.59348e-05
0.000133589
-0.000108584
-3.32658e-05
3.5422e-05
1.38138e-05
0.000106503
3.69295e-05
-6.1564e-05
1.43005e-06
3.04088e-06
-1.18789e-05
4.29848e-05
-0.000108531
5.92812e-05
-7.51612e-06
-9.04319e-05
0.000141919
-2.30523e-05
6.78864e-06
3.79237e-05
-0.000152062
4.0621e-05
5.02768e-05
0.000112594
0.000128136
-0.000125756
1.05312e-05
-5.09268e-05
2.98407e-05
2.57911e-05
-8.11836e-05
0.0001153
6.59632e-05
6.7694e-05
-0.000130827
-0.00011262
0.000101887
1.27102e-06
4.53308e-05
-8.13745e-05
-5.4419e-05
1.97911e-05
0.000133827
-0.000102773
2.49997e-05
2.97736e-05
-0.000129572
0.000129191
0.000223764
-9.91628e-05
3.28547e-05
-1.16029e-05
-8.31762e-05
-9.07929e-05
0.000253356
5.35444e-05
8.99078e-05
-1.2883e-05
1.56279e-05
-1.35129e-05
-6.94774e-05
0.000116717
6.96396e-07
-0.000128638
9.77188e-05
-3.59091e-05
7.80507e-06
-3.26317e-05
2.09035e-06
-0.000176927
3.63819e-05
8.55348e-05
3.70922e-06
-5.72653e-05
-6.51205e-05
3.48391e-05
7.9312e-05
-2.30513e-05
-9.24057e-05
0.000148317
2.08897e-05
-0.000112436
-1.74926e-06
2.79106e-05
0.000137688
2.49791e-05
9.288e-05
-7.91812e-05
-3.03596e-05
-2.91758e-05
-9.09554e-05
2.6048e-05
5.77992e-05
-3.75831e-05
-1.97815e-05
0.000156923
1.18944e-05
-4.09656e-05
-4.77978e-06
6.18375e-05
3.51769e-05
-7.29748e-05
2.94539e-05
-4.75405e-05
-0.000199166
-5.49514e-05
0.000113419
1.65845e-05
0.000119959
-4.95454e-05
-5.48705e-05
-4.4007e-05
-0.00013232
-1.10681e-05
-3.26023e-05
2.9519e-05
-6.70104e-05
-5.68002e-05
4.42578e-05
0.000101565
-3.75586e-05
6.88522e-05
2.77114e-05
-1.84723e-05
6.68014e-06
2.38261e-05
-5.53906e-05
-4.54467e-05
-0.000216462
-2.11409e-05
-1.80851e-06
-2.24015e-05
-1.20925e-05
0.00010017
-2.95334e-05
-7.851e-05
-5.64099e-05
3.54523e-05
-0.000122102
2.53571e-05
-5.1548e-05
-4.73846e-05
-0.000177943
9.91322e-05
-2.02773e-05
-9.05283e-05
-0.000160802
3.15862e-05
2.08628e-05
0.000123532
2.6199e-05
0.000129311
0.000128507
-0.000103171
0.000114865
-0.000114433
-0.000105036
8.21953e-05
2.43424e-06
-7.25684e-05
7.05033e-05
-7.86392e-05
6.73996e-05
-0.00012797
-0.000100283
-0.000118212
-7.90139e-05
0.000137716
0.000141568
9.93011e-06
7.1906e-05
0.000100329
2.52507e-05
1.47417e-06
8.82397e-05
5.75716e-05
-6.24527e-05
8.51986e-05
-0.000157947
1.81689e-05
-3.88641e-06
4.89351e-05
4.22928e-05
-0.000100306
-1.68697e-06
-1.68706e-05
0.000236002
-3.15239e-05
0.000154999
8.43909e-05
-0.00017859
-0.000125186
8.1485e-05
0.000228193
9.75167e-05
5.02658e-06
-2.93707e-05
-2.13403e-05
-8.04616e-06
0.000111528
1.97906e-07
1.47168e-05
2.26217e-05
-5.05624e-05
-1.86262e-05
-9.56482e-05
1.2717e-05
-6.36955e-06
-4.83734e-05
-0.000162495
-0.000150669
-0.000123185
-0.000130301
-0.000143541
2.76942e-05
-1.19656e-05
2.78472e-05
9.66762e-05
-0.00015589
-2.90859e-05
4.30576e-05
5.52201e-05
5.57832e-05
-7.19582e-05
8.21794e-05
3.18005e-05
-1.61426e-05
0.000118334
-3.50529e-05
6.98172e-05
5.22404e-05
-7.46009e-05
0.000128429
6.87914e-05
5.37089e-05
0.000164081
-6.81006e-06
5.29119e-05
6.07583e-05
0.00010507
-3.67897e-05
6.41252e-05
3.23202e-05
1.73884e-05
-6.47982e-05
3.52541e-05
-5.44731e-06
-5.82706e-05
1.32609e-05
7.89599e-06
3.92133e-06
-6.19176e-05
-0.000115363
0.000189382
-7.0301e-05
3.2449e-05
-1.29219e-05
1.29635e-05
3.50394e-05
-3.84762e-05
-0.000227834
1.54441e-05
6.68487e-05
0.000208985
-0.000137775
-0.000119737
3.37977e-06
-6.67844e-05
5.28109e-05
0.000212002
-5.04097e-05
4.52354e-05
6.23984e-05
6.92613e-06
3.33388e-05
-6.37035e-05
-0.000141853
-8.25962e-05
-2.83282e-05
6.21286e-05
7.06128e-05
-5.4114e-05
7.35441e-05
-7.91079e-05
-5.05357e-05
-4.26945e-05
-7.8611e-05
0.0001346
8.86398e-06
2.62016e-06
-3.53693e-05
-5.94269e-05
3.82784e-05
0.000139264
3.07461e-05
7.92206e-06
-4.5456e-05
9.66459e-05
-7.32994e-05
5.7451e-06
0.000131036
-4.60163e-05
6.8842e-05
1.54731e-05
-8.83697e-05
-5.20659e-05
1.93808e-05
-2.46966e-05
-0.000105775
5.53709e-05
8.18246e-05
-1.16583e-05
7.75496e-05
-7.53815e-05
1.98963e-05
-6.55057e-05
8.65612e-05
-3.59192e-05
3.04582e-05
-5.8895e-05
9.53057e-06
8.25459e-05
7.46213e-05
0.00012271
-5.17648e-05
-0.000140594
0.00019018
9.21101e-06
3.64253e-05
9.1663e-05
-3.47006e-05
4.3662e-05
3.07763e-05
-0.000150937
-8.9524e-05
0.000129958
-3.13125e-05
-7.87964e-05
6.66175e-06
-1.89291e-06
5.44362e-05
-0.000157931
6.44326e-05
4.38909e-06
3.60435e-05
-2.89264e-05
8.6172e-05
-1.95217e-05
0.000125604
-4.93157e-05
-0.000227412
-8.4489e-05
5.98041e-05
9.87016e-05
1.23552e-05
-5.95483e-05
-9.38496e-05
-3.7991e-06
9.86247e-06
2.55557e-05
-2.09046e-05
5.29066e-05
0.000165624
1.71976e-05
-1.62062e-05
8.63131e-05
9.68993e-05
0.00013841
-7.13123e-05
-9.83441e-05
-0.000187773
5.00734e-05
-0.000108282
-4.20377e-05
5.10601e-05
-1.11759e-05
-0.000140329
-4.61561e-05
9.76489e-05
1.93284e-06
0.000108967
-0.000172523
9.25385e-06
-0.000121084
-5.38625e-05
0.000162285
6.13243e-05
-2.99658e-05
7.61807e-05
0.000115906
-6.37936e-05
3.29332e-05
2.14527e-05
-4.11272e-06
5.7527e-05
2.3067e-05
2.59976e-05
-0.000109765
-5.5488e-05
-8.38353e-06
2.8762e-05
9.90405e-05
-4.36299e-05
1.81708e-05
-0.000169497
6.91157e-05
0.00012983
-9.32172e-05
-1.71873e-05
-6.78559e-05
-1.37762e-05
-2.54697e-05
4.15121e-05
2.24677e-05
-9.06693e-05
2.38989e-06
2.23625e-05
-1.01803e-05
-2.06269e-05
8.91828e-05
-1.05007e-06
-7.01812e-05
6.77118e-05
-0.000114379
0.00017775
6.07074e-05
-6.39323e-05
-4.53339e-05
-9.1569e-05
5.09651e-05
0.000144512
3.63763e-06
9.31649e-06
-4.96005e-05
-2.26528e-05
-0.000135984
6.17023e-05
-8.23097e-05
-2.61456e-05
6.40766e-05
-3.31929e-05
3.07765e-05
8.76579e-05
-0.000151893
-5.16763e-05
1.66295e-05
-6.09264e-05
-0.000119046
6.81188e-05
1.12379e-05
-9.24408e-06
-5.53962e-05
0.000118444
-2.72864e-05
-0.000138146
4.61021e-05
4.37244e-06
3.15582e-05
-5.22428e-05
-7.02599e-05
5.66058e-05
0.000132814
0.000165443
0.00012442
5.91401e-05
-9.19704e-05
1.81691e-05
6.40901e-06
8.71532e-05
4.34432e-05
8.68459e-05
-6.83201e-05
2.92051e-05
-3.11066e-05
2.9095e-05
7.0355e-05
-7.91658e-05
0.000121497
1.46347e-05
-3.8685e-05
-5.53841e-05
-9.60239e-05
0.000150603
4.095e-05
-7.54478e-05
-6.59025e-05
3.99818e-05
-3.86498e-05
0.000112857
-0.000197858
4.93142e-05
-6.38689e-05
-1.7704e-05
-2.65974e-05
-0.000101566
-1.84752e-05
-3.32679e-05
-1.24197e-05
-1.43065e-05
2.11515e-06
-3.65269e-05
2.22865e-05
-5.77044e-05
0.000197708
-0.000151495
-5.89499e-05
0.000137779
2.68319e-05
-9.80289e-05
-0.000124932
3.11427e-05
-1.91438e-05
1.89769e-06
9.94831e-05
0.00023289
7.02443e-05
-0.000154902
-8.72556e-05
0.000162866
4.77838e-06
-3.19141e-06
2.80284e-05
5.15273e-05
2.49969e-05
0.000113019
-0.00010313
6.42892e-06
-6.80701e-05
5.21254e-05
9.98091e-05
3.75335e-05
-1.25123e-05
2.78678e-05
-0.000175121
-3.98159e-05
0.000127756
5.71355e-06
-4.7381e-06
2.42176e-05
-0.000104495
-2.66114e-06
-0.000126257
-6.13297e-05
4.5714e-05
-2.78156e-05
7.88632e-05
0.000187592
0.000142461
-7.18029e-05
3.68712e-05
-7.99715e-05
-9.76783e-05
8.35126e-05
-7.66612e-05
1.73706e-05
3.88208e-05
3.76338e-05
-6.60974e-05
-4.90418e-05
-7.5486e-06
-0.000157611
7.44849e-05
0.000110231
0.000165343
-0.000116037
5.68124e-05
2.02925e-05
-4.26088e-05
4.47265e-05
-3.4778e-05
-3.89841e-05
-7.47684e-05
4.8048e-05
9.04487e-05
-5.58111e-05
-1.13859e-05
3.43542e-06
0.000201405
-5.24535e-05
6.94711e-05
-1.1361e-06
-8.97849e-05
6.21239e-06
-1.40304e-05
-5.95944e-05
3.46325e-05
0.000132579
-3.5716e-05
3.04384e-05
0.000111536
1.88514e-05
-1.74165e-05
-4.32122e-05
-1.18214e-05
-1.3191e-06
2.33714e-05
-2.0171e-05
-7.93706e-05
0.000145507
1.79217e-05
-2.63033e-05
-3.20198e-05
7.61121e-05
-8.72673e-06
-0.000197837
-0.000123453
2.00719e-05
4.62928e-05
0.000133335
-1.32768e-05
2.91379e-05
4.53093e-05
-3.26466e-05
-4.05909e-05
0.000121259
6.09391e-05
1.83131e-05
-6.41071e-05
8.71443e-05
-3.52124e-05
-2.23264e-05
2.69898e-05
-0.000210485
0.000114811
-9.10568e-05
0.000143741
1.79429e-05
1.02349e-05
-2.47061e-05
8.52564e-05
0.000171645
-1.39991e-05
-7.11632e-05
-7.28318e-05
5.8444e-05
5.29919e-05
6.56096e-05
-9.69055e-05
-1.35746e-05
0.000129801
0.000239294
-4.43285e-05
3.97889e-05
-1.95487e-05
9.60256e-05
-3.6029e-05
-0.000116181
-2.88162e-05
-4.16206e-05
0.000108467
7.31391e-06
2.43827e-05
-3.95869e-05
-9.52769e-05
0.000234467
8.88016e-05
5.22878e-05
7.42769e-05
6.16395e-05
-4.00973e-05
-8.55417e-05
-0.000195942
-9.62389e-05
-2.46789e-05
4.10401e-05
7.28227e-05
-1.15093e-05
0.000226808
0.000109815
-0.000132022
-9.46363e-06
7.56364e-05
-8.94861e-06
3.6506e-05
0.000156297
0.000201727
3.54771e-05
0.00015469
-1.79441e-05
9.59337e-05
9.93992e-05
-0.000144887
-0.000179458
-5.57554e-05
-0.000112793
4.62697e-05
9.80403e-06
-3.30922e-05
-6.04565e-05
4.98805e-06
6.3122e-05
-4.55346e-05
8.08996e-05
-4.53433e-05
-5.27857e-05
-3.14519e-06
-3.57055e-05
-9.53022e-06
-6.95041e-05
0.000112653
3.84292e-05
3.97172e-05
0.00011879
0.000150989
-1.5148e-05
-7.94139e-05
9.34955e-06
-0.000194301
9.04896e-06
0.000121528
0.000118377
1.48937e-05
-4.72452e-05
-0.000137434
9.47142e-05
7.65388e-05
2.43281e-05
-5.19562e-05
-9.07071e-05
-7.84029e-05
-0.00013318
0.000166111
0.000142645
-1.2802e-05
-6.76466e-06
6.35243e-05
-0.00016043
6.11539e-05
6.39409e-05
-4.49239e-05
-0.000135077
6.33212e-05
-1.69163e-06
7.03944e-05
-3.51341e-06
2.15792e-05
-9.5493e-05
4.57512e-08
3.92983e-06
-0.000138938
-4.66084e-05
-2.13985e-05
3.82516e-05
4.52854e-05
-5.11388e-05
-4.63859e-05
-3.81474e-05
-3.43006e-05
0.000192355
7.41847e-05
0.000221835
0.000152334
-0.000181402
7.71314e-05
-2.89914e-05
-3.52783e-05
-1.87594e-05
3.99149e-05
7.15951e-05
0.00011
-1.74607e-05
4.86125e-05
1.13272e-07
-2.96719e-05
-2.06055e-08
3.6699e-05
7.52389e-05
-6.67828e-05
-0.000120089
0.000114192
-8.33061e-05
0.000195564
-3.68104e-05
-4.9243e-05
-4.45823e-05
-6.72846e-05
-4.47982e-05
5.05162e-05
9.9953e-05
-0.000119873
-7.21816e-05
3.08801e-05
1.09178e-05
-6.43214e-05
-1.2768e-05
0.000136611
2.14316e-05
-8.01785e-05
0.000107602
-1.95287e-06
1.55652e-05
-0.000126492
-4.68821e-05
8.12871e-05
-2.08911e-05
-8.32625e-05
0.000186634
0.000197409
5.8867e-05
-0.000151033
-0.000109855
-0.000144197
-1.88316e-05
-2.3338e-05
9.07416e-05
0.000110765
8.3854e-07
0.000269336
6.3593e-06
-0.000178776
4.82053e-05
7.13742e-07
4.82099e-06
-7.97908e-05
-8.61995e-05
-1.99097e-05
-4.88925e-05
9.48096e-05
-7.22706e-07
0.000105487
-5.55774e-05
-3.23025e-05
-5.79725e-06
7.00363e-05
-2.66407e-05
5.87793e-06
2.30994e-05
-2.6938e-05
-3.5431e-05
0.000121423
-0.00019233
6.66257e-05
5.33483e-05
-3.13586e-05
-0.000112701
3.98427e-05
8.37327e-05
-0.000135248
-0.000129602
-3.15753e-05
-7.25345e-05
9.45918e-05
8.67737e-05
-0.000117806
-4.82255e-05
2.83681e-06
-0.000207579
2.65404e-05
0.000114953
2.77162e-06
-5.15219e-05
9.70059e-05
0.000128563
-5.79403e-05
4.13865e-05
8.48337e-05
-4.58402e-05
-9.13241e-05
0.000140747
2.60653e-05
-9.71518e-05
7.65491e-05
1.62686e-05
-0.000120146
-0.000104042
-4.25783e-05
0.000110973
2.52869e-05
-0.000134327
-6.40895e-05
0.000116878
5.98418e-05
-7.31114e-05
3.84442e-05
-2.63026e-05
-4.34949e-05
-9.02769e-05
2.12613e-05
-6.14579e-05
0.000181006
6.66183e-05
-0.00014922
-9.56701e-06
0.000104835
8.10262e-05
3.17444e-05
-2.58496e-05
-5.59187e-05
1.56058e-05
-4.1596e-05
4.94544e-05
-7.84522e-05
-0.0001203
1.88597e-05
3.4024e-05
-0.000102925
-9.4143e-05
-6.7265e-05
-2.04024e-05
-4.34599e-05
1.14392e-05
7.69979e-05
-0.000202481
-7.01309e-06
5.6959e-05
0.000138873
2.73646e-06
-1.34448e-05
0.000141716
-9.78188e-05
-1.75681e-05
-0.000114249
-4.51808e-06
0.000133411
-1.63736e-05
2.38842e-05
0.000114089
-1.51454e-05
5.78049e-06
-5.89266e-05
0.000106519
-0.000110708
6.32808e-05
0.000123234
-7.25344e-05
-4.84369e-06
4.0835e-05
-9.3549e-06
-0.000105669
-4.55789e-05
0.000124541
-6.00485e-05
-4.19326e-05
-0.000133914
-2.70044e-05
-2.51986e-05
5.45708e-06
-5.03543e-06
-7.69203e-05
6.50471e-06
0.000116326
0.000127374
0.000166731
-1.05557e-05
-0.000206479
0.000182522
7.48389e-05
-2.78915e-05
7.52546e-05
-4.91736e-05
-1.85499e-05
-1.14247e-05
3.40787e-05
-3.84292e-05
-7.33605e-05
8.69253e-05
6.50196e-05
-9.85952e-05
-5.78491e-06
-1.07904e-05
-5.80208e-05
-9.20609e-05
2.76718e-05
-8.15354e-05
-7.982e-05
2.13587e-05
0.000112224
9.84109e-05
7.53235e-05
-0.000211936
0.00016368
-7.19712e-05
4.48071e-06
-3.96575e-05
5.87142e-05
3.47935e-05
3.47581e-05
2.93544e-05
4.70458e-06
5.54371e-05
-1.48616e-06
-0.000124396
-3.48338e-06
-5.07142e-05
-2.09997e-05
0.000129397
-2.92571e-05
2.09177e-05
-7.0554e-05
-0.000171928
-3.46857e-05
0.000154134
-4.65247e-05
0.000150401
-1.40686e-05
2.78042e-05
-4.51307e-05
9.39495e-06
0.000141182
3.29125e-05
-4.06132e-05
6.58386e-05
3.87593e-05
-2.93374e-05
-3.00347e-05
-5.72309e-06
6.48905e-05
-3.88516e-05
0.000130689
-4.96431e-05
7.59359e-05
-3.69507e-05
9.97761e-06
-6.46461e-05
3.62754e-05
-2.49818e-05
-3.81781e-05
1.75786e-05
-6.32814e-05
-6.81198e-05
7.20706e-05
-4.26058e-05
-4.93642e-05
-9.92039e-05
-0.000139118
9.75174e-05
-3.39865e-05
-0.000114887
-0.000112189
4.04845e-05
-2.15919e-05
-4.61722e-05
0.000109451
7.06454e-05
-4.02319e-05
6.59095e-05
-3.00459e-05
4.02905e-05
0.000171771
-0.000140593
-0.000213177
-5.79011e-05
-5.55336e-06
6.44502e-05
-0.000166967
8.324e-05
7.40777e-05
-5.58072e-06
1.56963e-05
0.000152074
4.79021e-05
2.48021e-05
-1.09859e-05
-6.54359e-05
-9.80822e-05
-5.30051e-05
-2.2853e-05
0.000155693
6.38092e-05
4.59797e-05
-3.64112e-05
-0.000112675
-4.98447e-05
1.40645e-05
6.13125e-06
-2.21181e-05
3.62447e-05
6.27338e-05
2.96994e-05
7.35475e-05
-3.08981e-05
-8.75972e-05
1.02585e-06
0.000234073
-6.07658e-05
-8.99271e-05
4.3133e-05
9.36028e-05
4.04285e-05
-5.69934e-06
-7.08204e-05
-1.62122e-05
-8.7303e-05
-9.1234e-05