# vtk DataFile Version 1.0
Net Charge Density
ASCII
DATASET STRUCTURED_POINTS
DIMENSIONS 256 128 1
ORIGIN 0 0 0
SPACING 0.15625 0.15625 1
POINT_DATA 32768
SCALARS rhonet float
LOOKUP_TABLE default
-8.89963e-05
-0.00016443
6.73247e-05
0.000180924
3.86289e-06
0.000191473
3.31746e-05
-3.29298e-05
0.000211425
0.00020405
2.30235e-05
0.000279595
0.000127751
-0.000183836
-0.000216213
0.000243327
0.000142679
-9.87002e-05
-2.87001e-05
2.38949e-05
4.87664e-06
0.000126141
-8.77727e-05
5.35579e-05
9.73925e-05
2.47742e-05
7.28208e-05
7.3313e-05
0.000266094
4.45556e-05
-0.000187995
-0.000141228
0.000138519
0.000197821
4.20045e-05
0.000104592
0.000146124
-7.05898e-05
3.89591e-05
2.23197e-05
0.000178941
0.00013508
8.85108e-05
0.000102748
0.000125256
6.338e-06
2.51117e-05
8.20986e-05
5.31507e-05
0.000119897
0.000161602
-1.1104e-05
0.00015061
0.000179719
-9.16779e-05
-3.29587e-05
-3.99988e-05
0.000187685
0.000135206
0.000108327
-0.000173156
0.000276285
0.000165612
-3.84381e-05
-0.000121113
5.01915e-05
-8.66072e-05
0.000157549
1.51977e-05
-7.60976e-05
-6.64494e-05
-0.000151567
-3.41679e-05
0.000301609
7.66137e-05
-4.76976e-05
6.83874e-05
0.000145776
6.3415e-05
1.53659e-05
-0.000111346
-6.43475e-05
0.000307742
0.000107895
0.000156533
0.000151515
0.00018837
-0.000153581
0.000203115
0.00031454
8.47189e-05
-5.67466e-05
3.65125e-06
4.21896e-05
-1.17709e-05
0.000185572
-6.01255e-05
9.25155e-05
-0.000105055
0.000513904
0.000181121
-4.0647e-05
0.000103039
-1.57757e-05
1.81868e-05
0.000185247
1.56638e-05
-3.30391e-05
3.95841e-05
-5.65072e-05
9.67322e-05
0.000135004
-7.10146e-05
-0.000116246
-0.000293087
-1.20513e-05
0.000196575
0.000161801
1.39738e-05
-0.000188641
5.74625e-05
1.23903e-05
6.46161e-05
4.70163e-05
1.39866e-05
-2.69531e-05
8.53462e-05
2.44343e-05
0.00018368
2.48261e-05
3.65493e-05
0.000122553
9.4843e-05
-3.01065e-05
9.04195e-05
5.78713e-05
0.000279149
0.000120272
0.000106484
-0.000217122
-4.58094e-06
6.54798e-05
-4.92646e-06
4.9301e-05
-3.99715e-05
0.00010235
0.00016881
-3.91196e-05
3.76489e-05
0.000252592
-8.82365e-05
-4.82018e-05
0.000177523
0.000274355
0.000128818
6.23011e-05
0.000135927
8.18446e-06
4.77411e-05
6.06256e-05
0.000130789
0.000107804
-8.37166e-05
9.65771e-05
-5.18439e-05
-0.000102245
0.000160799
0.00021839
0.000229294
4.46856e-05
-5.02178e-05
-2.03343e-06
-6.93242e-06
-3.2265e-05
9.88855e-05
0.000118852
0.000188593
-3.82811e-05
-0.000114186
9.30812e-05
0.000170248
0.000170585
-5.9947e-05
-0.000114894
3.01115e-05
0.000124835
0.000147015
0.000125632
0.000105981
0.000260402
0.000187682
0.000105557
7.29117e-05
-8.07226e-05
-0.000155445
0.00030499
0.000208996
3.35153e-05
0.000190698
6.13369e-06
7.672e-06
1.51945e-05
0.000192277
8.8299e-05
-0.000104467
0.000146709
-5.74146e-05
-8.37946e-06
-8.2468e-05
0.000302362
-2.56734e-05
-0.00012002
0.00013921
0.000212545
-6.37455e-06
-5.47467e-05
3.51252e-05
5.77907e-05
4.46553e-05
0.000108325
-9.93179e-05
-0.000142599
0.000304249
8.57083e-05
-0.000139695
0.000208727
-8.71236e-05
6.99721e-05
-0.00020923
3.65506e-05
0.000211047
-0.000121397
-8.78274e-05
0.000243595
0.000104742
7.16867e-05
0.000175832
-8.41687e-05
0.000117093
0.000292926
3.00537e-05
-0.000198833
0.000113081
8.61073e-05
0.000117134
0.000126007
4.07929e-05
2.43263e-05
0.000117619
-7.49796e-06
6.64259e-05
-0.0001827
-1.10206e-05
-0.000116789
-5.03096e-05
0.000113212
9.38512e-05
7.11053e-06
-1.07277e-06
-0.000114282
1.30751e-05
-9.59639e-05
-0.00018783
-1.47215e-05
0.000141968
-0.000105542
-2.1177e-05
0.000159347
-6.0598e-05
-0.000104908
-0.000191294
-3.15246e-05
2.67867e-05
-8.83364e-05
2.81913e-05
6.03006e-05
-2.11128e-05
-0.000153984
-6.70901e-06
-0.000122242
-5.28987e-05
-0.000213783
8.63422e-05
2.43845e-05
1.32911e-06
-1.46828e-05
-4.76749e-05
0.000114567
-3.24087e-05
-5.6118e-06
-1.98609e-05
-3.69214e-05
-3.48268e-06
-0.000116265
-5.25548e-05
-1.27126e-06
-2.64918e-05
-0.000104853
-3.60247e-05
8.13331e-05
-0.000105781
-0.000144953
7.52907e-05
4.11217e-05
-2.63746e-05
3.98705e-05
-9.31579e-05
4.86263e-05
8.56468e-07
4.31924e-06
-0.000119127
-7.30142e-05
6.05754e-05
2.74992e-05
-0.000101009
6.03886e-05
-2.35747e-05
-0.000135273
-4.44637e-06
1.76309e-05
-0.000143069
5.91766e-05
-6.20307e-06
4.06071e-05
8.06636e-05
-7.99192e-05
3.6455e-05
-5.82086e-05
-9.32394e-06
5.90802e-05
4.19952e-05
3.69134e-05
-4.1961e-05
-5.43676e-05
3.41022e-05
-4.67338e-05
-0.0001537
-6.71796e-05
6.0031e-05
-4.68122e-05
-3.43901e-05
-8.82394e-05
4.5575e-05
-0.000176052
1.12817e-05
-0.00015407
-0.000127912
-9.47625e-05
-6.2146e-05
-4.80895e-05
5.24877e-05
-3.3679e-06
-0.000122983
4.3098e-05
-0.000154295
6.54004e-05
-0.00010901
-7.15223e-05
-5.46533e-05
0.000123682
-2.69085e-05
3.08171e-05
-0.000163153
0.000118408
-4.62127e-05
-0.000235137
-5.79352e-05
-7.17838e-05
-0.000163479
5.96767e-05
1.61466e-05
-7.24097e-05
2.98857e-05
-4.80517e-05
-4.5863e-05
-7.1962e-05
-3.38643e-05
-0.000109087
7.39484e-05
9.90365e-05
3.7502e-05
8.90737e-05
1.56958e-05
-6.02787e-05
2.84289e-05
-7.58178e-05
-6.37141e-05
0.000168835
-6.88587e-05
-0.000162257
2.27821e-05
1.59454e-06
-7.45539e-05
-0.000121428
-1.77696e-06
-0.000190662
0.00010786
0.000110056
-2.80036e-05
-1.88083e-05
-0.000179984
-8.35261e-05
9.67802e-05
8.11357e-06
6.51632e-05
0.000115118
-8.75529e-05
-5.66706e-05
4.48851e-05
-0.000137129
-9.15066e-05
-0.000117078
7.77816e-05
-6.16323e-05
-7.80416e-05
-4.38609e-05
6.10382e-05
-0.000105035
5.42324e-05
3.28156e-05
8.62763e-05
-5.37977e-05
-4.0635e-05
1.56845e-05
-4.02806e-05
-0.00021114
2.38117e-05
0.000203274
-1.50742e-05
4.13629e-05
-8.67893e-05
-6.52756e-05
3.89039e-05
-0.000102638
1.51226e-05
-4.97355e-05
-2.7699e-05
2.26527e-05
-3.52245e-05
-0.000176033
-0.000125342
-3.13105e-05
-3.65544e-07
-0.000170566
-4.75525e-05
-5.78198e-05
-0.000183783
-2.11982e-05
5.8874e-05
5.74091e-06
-3.58098e-05
-5.22006e-06
-8.06737e-05
-0.000193738
-0.000104423
-3.91721e-05
4.23503e-05
-9.052e-05
-7.62015e-05
-8.52789e-06
0.000146161
-0.000152343
-5.9685e-05
9.51999e-05
-0.000116926
9.23376e-05
-9.7899e-05
-1.4718e-05
0.000151848
2.37792e-05
-7.93701e-05
-2.82906e-05
-1.92884e-05
-2.44335e-05
-0.000142313
0.000105529
4.1811e-05
1.36642e-05
-1.15988e-05
-2.04688e-05
-2.06637e-07
-1.97632e-05
2.11211e-05
0.000109334
-0.000261438
4.28503e-05
4.0064e-05
-7.66995e-05
-6.17964e-05
-1.0273e-05
-0.000159574
-8.18924e-05
7.35667e-05
-4.22967e-05
9.2315e-06
-1.98812e-05
9.94606e-06
-8.879e-07
-5.61636e-05
-3.99561e-05
-5.35058e-05
-0.000102719
9.00062e-05
-0.000219845
-0.000120905
-5.90219e-05
4.97603e-05
-3.80758e-05
-1.36701e-05
-2.83029e-06
-8.348e-05
1.19547e-05
-7.01745e-05
-3.17384e-05
1.34768e-05
5.83425e-05
-0.000137647
-8.99406e-05
0.000151386
1.51158e-05
-6.14114e-06
-0.000129065
3.11778e-05
0.000173844
-0.000137103
4.43441e-05
0.000100967
9.51404e-06
9.34221e-06
4.56326e-05
-4.52996e-05
0.000231801
-1.65914e-05
-9.65686e-05
0.000247102
-6.24574e-05
-9.62125e-05
4.41666e-05
-6.7814e-05
-9.39942e-05
-3.89076e-05
6.94152e-05
5.60175e-05
3.48891e-05
-0.000183194
5.50053e-05
9.55171e-05
2.66575e-05
-3.39593e-05
0.000120548
5.00306e-06
-7.52766e-05
0.000127644
-7.99592e-05
-8.11346e-05
-0.000202427
6.1707e-05
-9.95559e-05
-5.43231e-05
-5.94817e-05
-9.60128e-05
0.000116062
-0.000147444
1.14926e-05
-7.43306e-05
0.000155805
7.66397e-05
-6.99931e-05
7.37107e-05
-2.04373e-05
-8.95963e-05
9.62396e-05
-3.38343e-05
-3.49059e-05
4.17582e-05
0.000162895
3.63595e-05
8.77911e-05
-3.58357e-05
-2.20579e-05
-3.02272e-06
-1.37128e-05
3.04272e-05
5.12842e-05
-1.66397e-05
-6.64195e-05
-0.000106226
-3.41025e-05
-0.000114615
-1.21311e-05
2.69825e-05
0.000152796
4.25637e-05
-6.62485e-05
1.30316e-05
0.000125127
-3.36292e-05
0.000125025
-3.74272e-05
-0.000105816
-9.70289e-05
0.000180479
2.01131e-05
3.3197e-05
4.16902e-05
0.000125363
-0.000130524
0.000146989
3.85051e-05
-9.22035e-05
-5.52821e-06
-2.88952e-05
-7.75092e-05
-0.00016559
-6.21089e-05
8.73234e-05
0.00013541
-5.5455e-05
8.27907e-05
8.54179e-05
0.000115635
-8.6287e-05
4.55804e-05
0.000119126
0.00018409
2.40596e-06
0.000137161
5.34614e-05
5.22609e-05
5.68461e-05
0.000167474
-5.51225e-05
-1.3379e-05
-4.05209e-05
-0.000125639
6.85597e-05
-1.32683e-05
3.22417e-05
-2.87497e-05
-4.65671e-05
-8.74827e-05
-7.05926e-05
7.68016e-05
-9.85499e-05
4.49258e-05
-7.86622e-05
9.82089e-05
-0.000145106
-0.000182992
0.000104832
-1.31569e-05
-7.55033e-05
0.000210965
-6.38556e-05
8.74363e-05
0.000118602
-0.000142688
0.000153399
0.000188842
-0.000133897
-3.0449e-05
-8.05345e-05
-1.98929e-05
-2.80347e-05
5.00237e-05
-0.000123372
-0.000185927
2.17028e-05
2.22621e-05
-4.22013e-05
8.28357e-05
-0.000114716
-1.43955e-05
-3.40618e-05
-0.00010146
3.65763e-05
-5.14565e-05
0.000108135
-1.38625e-05
-8.48663e-05
1.70886e-05
0.000166329
4.82557e-05
-0.000137476
-0.000130724
-9.48564e-06
4.53357e-05
-0.000128978
5.08628e-05
1.61455e-05
-0.000157478
0.000116753
-5.86523e-05
-9.88634e-06
2.70255e-05
5.98143e-05
5.88679e-05
7.47684e-05
-2.03855e-05
6.78024e-05
-9.19695e-05
-5.69038e-06
-0.000144547
0.00017434
-1.03795e-05
-3.0396e-06
3.54419e-05
7.376e-05
5.43422e-05
-7.24925e-05
-4.3993e-05
-3.61344e-05
2.6309e-05
0.000149056
6.77113e-05
-0.000108175
2.75439e-07
-0.000102251
0.000191155
-4.93019e-07
2.48823e-05
1.41291e-05
-5.52989e-05
-0.000112945
1.6452e-05
5.99897e-05
-0.000104575
-2.01639e-05
-2.0616e-05
-2.06784e-05
2.71749e-05
3.2953e-05
9.95216e-05
-4.5678e-05
-3.40282e-06
3.48246e-05
5.44946e-05
4.12606e-05
0.000162435
-7.54972e-05
-7.04983e-05
-8.71019e-07
0.000148986
8.32421e-05
6.13604e-05
7.60476e-05
-1.61111e-05
-8.15606e-06
0.000102876
4.52769e-05
3.0488e-06
1.02994e-05
9.89576e-05
-6.89168e-05
3.38092e-05
7.08608e-05
-5.00828e-05
-0.000160351
2.8501e-05
-3.9469e-05
0.000187725
0.000159625
2.64985e-05
9.43411e-05
4.62707e-05
5.01273e-06
-5.53345e-06
0.00016653
-0.000108887
6.76437e-05
7.97855e-05
2.64239e-05
-3.33125e-05
-3.69871e-05
0.000154182
-0.000138618
-8.34804e-05
3.13437e-05
1.95624e-06
7.74227e-05
-8.67887e-05
-0.000106185
0.000124944
-3.27127e-06
3.75248e-05
9.61653e-05
-6.26926e-05
0.00019247
1.75089e-07
-0.000103404
-1.46434e-05
-7.02795e-05
0.000126966
-4.42553e-05
-3.12375e-05
-6.08347e-05
0.000185488
6.59481e-06
-2.88459e-05
2.55753e-06
-4.1951e-05
2.8881e-05
-7.87323e-05
-0.000245336
-4.55754e-06
1.4191e-06
-2.96715e-05
-0.000100694
6.97643e-05
9.95679e-05
2.10071e-05
9.20023e-05
0.000134083
6.70715e-06
-3.2171e-05
-1.0582e-05
0.000141856
-7.66038e-05
-3.02679e-05
-9.20406e-05
-5.64931e-05
-6.9965e-05
-1.04215e-06
-3.12673e-05
-1.03468e-05
-1.91766e-05
6.47316e-06
-1.19123e-05
1.19002e-05
-0.00012422
-0.000133447
2.95361e-05
2.01779e-05
7.0115e-05
-6.80154e-05
0.000112859
-5.64295e-05
-0.000102792
3.18147e-05
9.65786e-05
0.000142974
-0.00021521
-2.51571e-05
0.000155176
-7.08783e-05
-1.83517e-06
-9.00577e-05
-6.1238e-05
3.0627e-05
-2.73811e-05
0.000121417
-7.09179e-06
-0.00013656
5.42093e-05
-8.1833e-06
-8.82484e-05
-4.2069e-06
6.04576e-05
1.07277e-06
-0.000111191
-8.29692e-05
-0.000135973
-2.61226e-05
7.2001e-05
-0.000131597
2.96031e-05
2.28286e-05
-6.37443e-05
0.00025458
-1.29701e-05
-0.000103429
-5.66979e-05
-0.000126446
-7.45116e-06
9.49728e-05
-0.000134313
2.41231e-05
-7.84071e-05
9.75842e-05
3.62005e-05
9.45163e-05
2.15506e-05
-2.06127e-05
-3.88101e-05
-0.000148647
0.000226775
9.63686e-05
-7.6323e-05
2.87786e-05
8.77602e-05
-8.39325e-05
-2.85238e-05
0.00010019
-0.000145642
7.6779e-05
4.41065e-05
6.33274e-05
3.54638e-05
-4.70189e-05
6.01049e-05
0.000238689
-1.13712e-05
1.3281e-05
4.61284e-05
9.35649e-05
0.000111443
6.89398e-05
4.29252e-05
5.71754e-05
-0.000123357
-2.57513e-05
2.09776e-05
-7.54531e-05
-5.30495e-05
3.71714e-06
-4.13265e-05
0.000107548
-7.4116e-05
-8.38636e-05
3.15659e-05
-0.000155529
-4.05929e-06
8.19243e-05
7.88567e-05
8.92126e-06
-0.000158251
0.000104388
6.37078e-05
-9.68605e-05
8.46991e-06
-2.2642e-05
2.02251e-05
-5.80796e-05
-4.53768e-05
-0.000111838
-1.58467e-05
4.66692e-05
8.89634e-06
1.84823e-05
0.000207152
1.02585e-05
3.13811e-05
0.000133192
4.81962e-05
4.80297e-05
4.55589e-05
2.47974e-05
0.000182448
-2.09904e-05
-5.10684e-05
-0.000165661
-1.12366e-05
1.81826e-05
-8.31872e-05
-4.87245e-05
-7.17351e-06
6.01646e-06
-7.74846e-05
6.14958e-05
8.30097e-05
5.09628e-05
-9.22172e-06
-1.73694e-05
4.86081e-06
0.000144274
-9.19842e-05
-0.000114029
-6.52779e-05
-1.09931e-05
8.56711e-05
-5.85103e-07
-1.54504e-05
0.000174422
0.000100694
-6.32089e-05
-0.0001399
1.76427e-05
-7.06057e-05
3.54815e-05
-0.000141504
8.52001e-05
7.95138e-05
-0.000127984
1.78961e-05
4.63221e-05
0.000139067
-4.06975e-05
-0.000219237
1.18925e-05
6.9126e-05
0.000103412
3.01389e-05
1.812e-05
-8.48223e-05
-2.77944e-05
-3.61355e-05
-4.22499e-05
2.4697e-05
-0.000103875
-0.000121247
-1.83884e-05
-5.68031e-05
-0.000118191
-0.000102747
9.25113e-05
2.27755e-05
1.13469e-05
-0.000100635
-2.48384e-05
-9.26373e-05
3.89394e-05
5.6729e-05
-3.55965e-05
7.58736e-05
0.000112991
2.82424e-05
-6.06349e-05
1.33617e-05
-4.06096e-05
-1.7771e-05
8.73166e-05
-0.000233145
-0.000133023
0.000155852
-4.31325e-05
-1.50556e-05
-9.80077e-06
-1.25056e-05
3.95533e-05
-6.4272e-05
3.49176e-06
-0.000116737
-9.34431e-06
2.47869e-05
7.48537e-05
-0.000201997
-7.66099e-05
5.21203e-05
6.21412e-05
-2.86258e-05
-7.18142e-05
-8.01744e-05
-4.28619e-05
9.60915e-06
-5.67324e-05
-7.19777e-05
-4.84587e-05
1.45547e-05
0.000141873
0.00012703
1.97347e-06
9.00914e-05
5.61428e-05
-0.000165351
3.27248e-05
-6.42671e-05
9.19828e-05
-1.09908e-06
0.000159574
-1.11897e-05
-3.98199e-05
0.000106628
2.95392e-05
0.000145453
-0.000168276
-0.000103097
-5.23592e-05
4.49643e-06
2.28104e-06
6.18852e-05
-3.49609e-05
-0.000110268
8.19855e-05
-8.72054e-05
0.000166318
-0.000134453
4.82146e-05
-8.84768e-06
-3.29828e-06
7.42724e-05
-5.8574e-05
3.09364e-05
5.61937e-07
-9.50585e-05
6.60254e-05
-2.82365e-05
-8.41324e-05
-6.04368e-05
5.38501e-05
0.00025675
-0.000159861
2.50965e-05
3.6775e-05
-2.1539e-05
7.59185e-05
-7.9782e-05
0.000149188
-0.000147422
7.61396e-05
-3.7276e-05
2.41607e-05
-6.29658e-05
-3.29041e-05
1.48165e-05
-4.53118e-05
-8.09511e-05
-7.09492e-05
0.000223434
-8.89176e-05
-7.10957e-05
5.09383e-05
-0.000254145
2.66444e-05
0.000193972
1.42027e-08
6.41404e-05
-9.98838e-05
3.32808e-05
4.9251e-05
4.34157e-05
-0.000144352
7.04246e-05
-1.6971e-06
-0.000104599
-6.99658e-05
-2.57383e-06
3.46662e-06
0.000126864
-8.41732e-05
0.00011235
-7.54301e-06
7.81089e-06
-0.000189092
2.34592e-05
-8.62777e-06
-0.000121177
-2.05013e-05
-6.07828e-06
5.2964e-05
-0.00019209
-9.77202e-05
-8.92789e-07
-9.43674e-06
-0.000140862
1.41957e-05
0.000150768
-2.4194e-05
-5.047e-05
-0.000102181
-7.32185e-05
4.00079e-05
-8.4015e-05
-2.62004e-06
7.21652e-05
-5.01564e-06
-0.000208036
-5.41105e-05
5.78302e-05
3.0119e-06
-0.000111918
6.54079e-06
-5.46845e-05
-5.08742e-05
-0.000133588
3.3115e-05
-4.74113e-06
-5.78373e-05
1.08753e-05
-4.19094e-05
-7.33046e-05
-5.93816e-05
-6.37657e-05
-7.91914e-05
0.000179464
1.76672e-05
2.41748e-05
4.90125e-05
9.09176e-05
1.51541e-05
2.98349e-05
0.00012313
-3.18812e-05
-5.28046e-05
4.12739e-05
-3.41272e-05
3.48021e-05
5.96381e-05
4.79472e-05
4.51221e-05
-8.7588e-05
-0.000116376
0.000112258
0.000105033
5.79008e-05
-5.89762e-05
-0.000101084
-4.49345e-05
1.35773e-05
-8.0301e-05
-7.24148e-05
-5.80536e-05
-8.03894e-06
8.58207e-05
4.42254e-05
1.96765e-05
6.93051e-05
-1.14448e-05
4.66334e-05
0.000114619
6.39141e-05
2.4543e-05
1.20534e-05
-3.64082e-05
0.000183935
-4.00513e-05
-9.58393e-05
-7.97369e-05
-6.42384e-05
0.000156117
-6.36359e-05
-2.02826e-05
4.17314e-06
-4.45126e-05
7.46369e-05
4.88353e-05
-3.63679e-05
-0.000136864
2.26921e-05
8.50555e-05
-0.000120948
5.87199e-05
8.04802e-05
0.000141268
-9.61537e-05
-4.6613e-05
9.01544e-06
9.69344e-06
-7.78125e-05
-0.000100692
-1.29174e-05
-5.87933e-05
0.000103821
-6.09953e-05
8.94495e-05
9.45114e-05
-0.000128505
-4.94942e-05
-4.36886e-05
-7.08306e-05
-0.000152902
8.99585e-05
3.93855e-05
-3.43996e-05
8.36032e-05
-8.6269e-05
1.90386e-05
0.000105029
6.92384e-05
-0.00015256
-1.11221e-05
1.29406e-05
-3.59847e-05
-0.000109606
-9.22394e-06
4.9961e-05
-0.000108295
-2.22259e-05
0.000162948
-3.69201e-05
-8.13976e-05
7.08317e-05
7.32477e-05
-0.000151625
1.86786e-05
-8.27658e-05
0.000149285
0.000208639
-8.35499e-05
0.000200181
-0.000120059
-1.88106e-05
6.65957e-05
2.44026e-05
3.58019e-05
-2.18056e-05
2.20279e-05
9.15898e-06
-1.01895e-05
7.73019e-05
0.000114985
0.000149647
-0.00023387
-7.64143e-05
-7.88828e-05
-9.34927e-05
-2.89034e-05
-6.38494e-05
-1.02562e-05
6.80243e-05
8.09908e-05
-9.77288e-05
-4.77608e-05
2.207e-05
-9.07236e-06
-7.34442e-05
-2.47922e-05
-5.5419e-05
-0.000158401
-0.000131673
-0.000131402
0.000161567
-3.50329e-06
0.000106311
6.27383e-05
8.723e-05
2.11264e-05
-3.42308e-05
6.97582e-05
-0.000100716
-5.44625e-05
3.59345e-05
0.000133588
-0.000108584
-3.32656e-05
3.54218e-05
1.38135e-05
0.000106503
3.69295e-05
-6.15639e-05
1.4297e-06
3.04077e-06
-1.18786e-05
4.29846e-05
-0.000108531
5.92811e-05
-7.51636e-06
-9.04314e-05
0.00014192
-2.30517e-05
6.78864e-06
3.79235e-05
-0.000152062
4.06208e-05
5.02762e-05
0.000112594
0.000128137
-0.000125756
1.05312e-05
-5.09269e-05
2.98411e-05
2.5791e-05
-8.11834e-05
0.0001153
6.59634e-05
6.76948e-05
-0.000130828
-0.00011262
0.000101887
1.27091e-06
4.53311e-05
-8.13745e-05
-5.44185e-05
1.97912e-05
0.000133827
-0.000102773
2.49998e-05
2.97731e-05
-0.000129572
0.000129191
0.000223764
-9.91626e-05
3.2855e-05
-1.16032e-05
-8.31765e-05
-9.07927e-05
0.000253356
5.35444e-05
8.99078e-05
-1.28824e-05
1.56281e-05
-1.35126e-05
-6.94775e-05
0.000116717
6.96513e-07
-0.000128637
9.77189e-05
-3.59083e-05
7.8053e-06
-3.26311e-05
2.09012e-06
-0.000176927
3.63819e-05
8.55342e-05
3.70876e-06
-5.72652e-05
-6.51202e-05
3.48396e-05
7.93121e-05
-2.30514e-05
-9.24055e-05
0.000148317
2.08893e-05
-0.000112436
-1.74926e-06
2.79103e-05
0.000137689
2.49794e-05
9.28805e-05
-7.91814e-05
-3.03598e-05
-2.91754e-05
-9.09552e-05
2.60475e-05
5.7799e-05
-3.75831e-05
-1.97814e-05
0.000156924
1.18944e-05
-4.09649e-05
-4.77943e-06
6.18373e-05
3.51769e-05
-7.29746e-05
2.9454e-05
-4.75408e-05
-0.000199166
-5.49513e-05
0.00011342
1.65851e-05
0.000119958
-4.95459e-05
-5.48703e-05
-4.40069e-05
-0.00013232
-1.10682e-05
-3.26023e-05
2.95191e-05
-6.70106e-05
-5.68003e-05
4.42577e-05
0.000101565
-3.75581e-05
6.88515e-05
2.77116e-05
-1.84723e-05
6.67991e-06
2.38259e-05
-5.53909e-05
-4.54469e-05
-0.000216462
-2.1141e-05
-1.80863e-06
-2.24013e-05
-1.20921e-05
0.000100169
-2.95329e-05
-7.85101e-05
-5.64099e-05
3.54522e-05
-0.000122102
2.53569e-05
-5.15475e-05
-4.73846e-05
-0.000177943
9.91322e-05
-2.02772e-05
-9.05282e-05
-0.000160802
3.1586e-05
2.08626e-05
0.000123533
2.61994e-05
0.00012931
0.000128507
-0.000103172
0.000114865
-0.000114433
-0.000105036
8.21957e-05
2.43424e-06
-7.25685e-05
7.05031e-05
-7.86395e-05
6.73995e-05
-0.000127969
-0.000100283
-0.000118212
-7.90132e-05
0.000137716
0.000141568
9.92906e-06
7.19059e-05
0.000100329
2.52508e-05
1.47405e-06
8.82397e-05
5.75717e-05
-6.24529e-05
8.5198e-05
-0.000157947
1.817e-05
-3.88629e-06
4.89352e-05
4.22928e-05
-0.000100306
-1.68732e-06
-1.68704e-05
0.000236001
-3.15239e-05
0.000154998
8.43909e-05
-0.00017859
-0.000125187
8.14858e-05
0.000228193
9.75166e-05
5.02681e-06
-2.93704e-05
-2.134e-05
-8.04628e-06
0.000111529
1.9779e-07
1.47172e-05
2.26218e-05
-5.05628e-05
-1.86268e-05
-9.5648e-05
1.27169e-05
-6.36955e-06
-4.8373e-05
-0.000162495
-0.000150669
-0.000123185
-0.000130301
-0.000143542
2.76942e-05
-1.19655e-05
2.78475e-05
9.66762e-05
-0.000155889
-2.90854e-05
4.3058e-05
5.52195e-05
5.5783e-05
-7.19579e-05
8.21792e-05
3.18005e-05
-1.61428e-05
0.000118334
-3.50529e-05
6.98171e-05
5.22404e-05
-7.46018e-05
0.000128429
6.87913e-05
5.37089e-05
0.000164081
-6.80995e-06
5.29116e-05
6.07581e-05
0.00010507
-3.67896e-05
6.41255e-05
3.23202e-05
1.73887e-05
-6.47985e-05
3.52539e-05
-5.44684e-06
-5.8271e-05
1.32606e-05
7.89622e-06
3.92087e-06
-6.19177e-05
-0.000115363
0.000189382
-7.03007e-05
3.24491e-05
-1.29216e-05
1.29632e-05
3.50389e-05
-3.84762e-05
-0.000227834
1.54441e-05
6.68488e-05
0.000208984
-0.000137775
-0.000119737
3.37954e-06
-6.67843e-05
5.28109e-05
0.000212002
-5.04102e-05
4.5235e-05
6.23981e-05
6.92566e-06
3.33387e-05
-6.37037e-05
-0.000141853
-8.25964e-05
-2.8328e-05
6.21285e-05
7.0613e-05
-5.41144e-05
7.35448e-05
-7.91078e-05
-5.05353e-05
-4.26945e-05
-7.86108e-05
0.0001346
8.86363e-06
2.62051e-06
-3.53693e-05
-5.94268e-05
3.82786e-05
0.000139264
3.0746e-05
7.9216e-06
-4.54558e-05
9.66459e-05
-7.32997e-05
5.7451e-06
0.000131036
-4.60169e-05
6.8842e-05
1.54725e-05
-8.83697e-05
-5.20662e-05
1.93805e-05
-2.46968e-05
-0.000105775
5.53706e-05
8.18241e-05
-1.16582e-05
7.75496e-05
-7.5381e-05
1.98961e-05
-6.55048e-05
8.65608e-05
-3.59192e-05
3.04584e-05
-5.88947e-05
9.53081e-06
8.25459e-05
7.46216e-05
0.00012271
-5.1765e-05
-0.000140594
0.00019018
9.21113e-06
3.64252e-05
9.16629e-05
-3.47007e-05
4.36626e-05
3.07766e-05
-0.000150937
-8.95243e-05
0.000129958
-3.13122e-05
-7.87958e-05
6.66175e-06
-1.89326e-06
5.44358e-05
-0.00015793
6.44325e-05
4.38874e-06
3.60437e-05
-2.89265e-05
8.61719e-05
-1.95205e-05
0.000125603
-4.93161e-05
-0.000227412
-8.44891e-05
5.98039e-05
9.87016e-05
1.23555e-05
-5.95482e-05
-9.38489e-05
-3.7991e-06
9.86224e-06
2.55562e-05
-2.09048e-05
5.29059e-05
0.000165624
1.71983e-05
-1.62059e-05
8.63122e-05
9.68999e-05
0.00013841
-7.13127e-05
-9.83443e-05
-0.000187773
5.00734e-05
-0.000108282
-4.20373e-05
5.106e-05
-1.11761e-05
-0.000140329
-4.61565e-05
9.76489e-05
1.93354e-06
0.000108966
-0.000172523
9.25362e-06
-0.000121085
-5.38622e-05
0.000162285
6.13241e-05
-2.99658e-05
7.61806e-05
0.000115906
-6.37937e-05
3.29332e-05
2.14528e-05
-4.1126e-06
5.75267e-05
2.30669e-05
2.59976e-05
-0.000109765
-5.54884e-05
-8.38377e-06
2.87625e-05
9.90406e-05
-4.36297e-05
1.81703e-05
-0.000169497
6.91153e-05
0.00012983
-9.32179e-05
-1.71876e-05
-6.78559e-05
-1.37771e-05
-2.54695e-05
4.15122e-05
2.24676e-05
-9.06689e-05
2.38931e-06
2.23626e-05
-1.01802e-05
-2.06265e-05
8.91824e-05
-1.0496e-06
-7.01812e-05
6.77125e-05
-0.000114379
0.000177749
6.07079e-05
-6.39324e-05
-4.53329e-05
-9.15694e-05
5.09658e-05
0.000144512
3.63775e-06
9.31649e-06
-4.95999e-05
-2.26527e-05
-0.000135984
6.1702e-05
-8.23094e-05
-2.61451e-05
6.40771e-05
-3.31929e-05
3.07764e-05
8.76579e-05
-0.000151892
-5.16772e-05
1.66291e-05
-6.09264e-05
-0.000119047
6.81182e-05
1.12378e-05
-9.24466e-06
-5.53955e-05
0.000118444
-2.72867e-05
-0.000138147
4.61019e-05
4.37268e-06
3.1558e-05
-5.22429e-05
-7.02604e-05
5.66061e-05
0.000132813
0.000165444
0.00012442
5.91399e-05
-9.19702e-05
1.81688e-05
6.40913e-06
8.71532e-05
4.34432e-05
8.68461e-05
-6.83202e-05
2.92053e-05
-3.11065e-05
2.90948e-05
7.03547e-05
-7.91654e-05
0.000121496
1.46352e-05
-3.86853e-05
-5.53841e-05
-9.60238e-05
0.000150604
4.09505e-05
-7.54482e-05
-6.59031e-05
3.99814e-05
-3.86498e-05
0.000112857
-0.000197858
4.93141e-05
-6.38692e-05
-1.77037e-05
-2.65974e-05
-0.000101566
-1.84751e-05
-3.32678e-05
-1.24197e-05
-1.43063e-05
2.11573e-06
-3.65266e-05
2.22862e-05
-5.7704e-05
0.000197708
-0.000151495
-5.89499e-05
0.000137779
2.68319e-05
-9.80286e-05
-0.000124932
3.11434e-05
-1.9144e-05
1.89804e-06
9.94836e-05
0.00023289
7.02442e-05
-0.000154902
-8.7256e-05
0.000162866
4.77792e-06
-3.19118e-06
2.8029e-05
5.15269e-05
2.49968e-05
0.000113019
-0.00010313
6.4288e-06
-6.80701e-05
5.21252e-05
9.98094e-05
3.75335e-05
-1.25123e-05
2.7868e-05
-0.000175121
-3.98165e-05
0.000127756
5.7132e-06
-4.73834e-06
2.4218e-05
-0.000104495
-2.66137e-06
-0.000126256
-6.1329e-05
4.5714e-05
-2.78155e-05
7.88632e-05
0.000187592
0.000142461
-7.1803e-05
3.68713e-05
-7.99715e-05
-9.76786e-05
8.35125e-05
-7.66607e-05
1.73708e-05
3.88214e-05
3.7634e-05
-6.60975e-05
-4.90412e-05
-7.5486e-06
-0.000157611
7.44852e-05
0.000110231
0.000165343
-0.000116037
5.68121e-05
2.02927e-05
-4.26086e-05
4.47269e-05
-3.47781e-05
-3.89842e-05
-7.47687e-05
4.80479e-05
9.04489e-05
-5.58108e-05
-1.13858e-05
3.43542e-06
0.000201405
-5.2454e-05
6.94708e-05
-1.13575e-06
-8.97851e-05
6.21297e-06
-1.40303e-05
-5.95944e-05
3.46327e-05
0.000132579
-3.57158e-05
3.0438e-05
0.000111535
1.88512e-05
-1.74163e-05
-4.32121e-05
-1.18209e-05
-1.31922e-06
2.33714e-05
-2.01708e-05
-7.93707e-05
0.000145507
1.79219e-05
-2.6303e-05
-3.20193e-05
7.61125e-05
-8.72638e-06
-0.000197836
-0.000123453
2.00714e-05
4.62931e-05
0.000133334
-1.32769e-05
2.91377e-05
4.53093e-05
-3.26462e-05
-4.05911e-05
0.00012126
6.09389e-05
1.83126e-05
-6.41075e-05
8.71442e-05
-3.52125e-05
-2.23264e-05
2.69902e-05
-0.000210486
0.000114812
-9.10567e-05
0.00014374
1.79432e-05
1.02351e-05
-2.47059e-05
8.52564e-05
0.000171644
-1.39993e-05
-7.11631e-05
-7.28321e-05
5.84444e-05
5.29918e-05
6.56096e-05
-9.69055e-05
-1.35746e-05
0.000129801
0.000239294
-4.43285e-05
3.9789e-05
-1.95485e-05
9.60255e-05
-3.60284e-05
-0.000116182
-2.88163e-05
-4.16208e-05
0.000108467
7.31414e-06
2.43828e-05
-3.95873e-05
-9.52767e-05
0.000234467
8.88014e-05
5.22875e-05
7.42765e-05
6.16391e-05
-4.0097e-05
-8.5542e-05
-0.000195942
-9.6239e-05
-2.46789e-05
4.10399e-05
7.28227e-05
-1.15088e-05
0.000226808
0.000109815
-0.000132022
-9.46363e-06
7.56362e-05
-8.94838e-06
3.65066e-05
0.000156297
0.000201727
3.54771e-05
0.00015469
-1.79439e-05
9.59343e-05
9.93994e-05
-0.000144887
-0.000179458
-5.57553e-05
-0.000112794
4.62695e-05
9.8038e-06
-3.30916e-05
-6.04563e-05
4.98816e-06
6.31218e-05
-4.55347e-05
8.08993e-05
-4.53431e-05
-5.27853e-05
-3.14438e-06
-3.57053e-05
-9.53034e-06
-6.95041e-05
0.000112653
3.84289e-05
3.97174e-05
0.00011879
0.000150989
-1.51485e-05
-7.94132e-05
9.34873e-06
-0.000194301
9.04873e-06
0.000121528
0.000118377
1.48943e-05
-4.72448e-05
-0.000137434
9.47143e-05
7.6539e-05
2.4328e-05
-5.19559e-05
-9.07071e-05
-7.84029e-05
-0.00013318
0.000166112
0.000142645
-1.28021e-05
-6.76455e-06
6.35247e-05
-0.00016043
6.11541e-05
6.39411e-05
-4.49237e-05
-0.000135077
6.3321e-05
-1.69128e-06
7.03942e-05
-3.5133e-06
2.1579e-05
-9.54932e-05
4.58676e-08
3.9296e-06
-0.000138938
-4.66087e-05
-2.1399e-05
3.82514e-05
4.5286e-05
-5.11387e-05
-4.63857e-05
-3.81474e-05
-3.43007e-05
0.000192354
7.41846e-05
0.000221835
0.000152335
-0.000181402
7.71312e-05
-2.89918e-05
-3.52781e-05
-1.87595e-05
3.99151e-05
7.1595e-05
0.00011
-1.74603e-05
4.86122e-05
1.13505e-07
-2.96719e-05
-2.07219e-08
3.6699e-05
7.52389e-05
-6.67825e-05
-0.00012009
0.000114192
-8.33063e-05
0.000195565
-3.68103e-05
-4.92427e-05
-4.45826e-05
-6.72843e-05
-4.4798e-05
5.0516e-05
9.99527e-05
-0.000119873
-7.2182e-05
3.08804e-05
1.09173e-05
-6.43213e-05
-1.27676e-05
0.000136612
2.14311e-05
-8.01787e-05
0.000107603
-1.95275e-06
1.55652e-05
-0.000126493
-4.68825e-05
8.12869e-05
-2.08913e-05
-8.32627e-05
0.000186634
0.000197409
5.88673e-05
-0.000151033
-0.000109855
-0.000144197
-1.88311e-05
-2.3338e-05
9.07426e-05
0.000110765
8.3819e-07
0.000269336
6.3593e-06
-0.000178776
4.8205e-05
7.13859e-07
4.82146e-06
-7.97904e-05
-8.61993e-05
-1.99093e-05
-4.88927e-05
9.48093e-05
-7.22473e-07
0.000105487
-5.55768e-05
-3.23021e-05
-5.79772e-06
7.00356e-05
-2.66408e-05
5.87769e-06
2.30989e-05
-2.69382e-05
-3.54315e-05
0.000121423
-0.00019233
6.6626e-05
5.33487e-05
-3.13583e-05
-0.000112701
3.98428e-05
8.37327e-05
-0.000135248
-0.000129602
-3.15753e-05
-7.25344e-05
9.45916e-05
8.67739e-05
-0.000117805
-4.82252e-05
2.83658e-06
-0.000207579
2.65405e-05
0.000114953
2.77197e-06
-5.15217e-05
9.70061e-05
0.000128563
-5.79401e-05
4.13863e-05
8.48334e-05
-4.58404e-05
-9.13241e-05
0.000140747
2.60654e-05
-9.71522e-05
7.65489e-05
1.62692e-05
-0.000120146
-0.000104043
-4.25782e-05
0.000110974
2.52863e-05
-0.000134327
-6.40892e-05
0.000116879
5.98415e-05
-7.31114e-05
3.84444e-05
-2.63026e-05
-4.34947e-05
-9.02765e-05
2.12617e-05
-6.14577e-05
0.000181005
6.66184e-05
-0.000149219
-9.56701e-06
0.000104834
8.10268e-05
3.17444e-05
-2.58491e-05
-5.59181e-05
1.56057e-05
-4.15964e-05
4.94547e-05
-7.84525e-05
-0.0001203
1.88593e-05
3.40242e-05
-0.000102925
-9.41432e-05
-6.72649e-05
-2.04023e-05
-4.34602e-05
1.14384e-05
7.69976e-05
-0.000202481
-7.01239e-06
5.69595e-05
0.000138873
2.73681e-06
-1.34442e-05
0.000141716
-9.78188e-05
-1.75684e-05
-0.000114249
-4.51761e-06
0.000133412
-1.63738e-05
2.38848e-05
0.00011409
-1.51453e-05
5.78049e-06
-5.89266e-05
0.000106519
-0.000110708
6.32806e-05
0.000123234
-7.25342e-05
-4.84299e-06
4.08355e-05
-9.3549e-06
-0.000105669
-4.55787e-05
0.000124541
-6.00487e-05
-4.19326e-05
-0.000133914
-2.70046e-05
-2.5199e-05
5.45732e-06
-5.0352e-06
-7.69208e-05
6.50471e-06
0.000116326
0.000127374
0.00016673
-1.0556e-05
-0.00020648
0.000182522
7.48385e-05
-2.78915e-05
7.52546e-05
-4.91735e-05
-1.85497e-05
-1.14243e-05
3.4079e-05
-3.84287e-05
-7.33603e-05
8.69251e-05
6.50194e-05
-9.85952e-05
-5.78468e-06
-1.07904e-05
-5.80209e-05
-9.20605e-05
2.76711e-05
-8.15353e-05
-7.98202e-05
2.1359e-05
0.000112224
9.84115e-05
7.53237e-05
-0.000211937
0.00016368
-7.1971e-05
4.48059e-06
-3.96579e-05
5.87143e-05
3.47937e-05
3.47581e-05
2.93544e-05
4.70469e-06
5.54372e-05
-1.48639e-06
-0.000124396
-3.48361e-06
-5.07141e-05
-2.09992e-05
0.000129397
-2.92571e-05
2.09175e-05
-7.05537e-05
-0.000171928
-3.46856e-05
0.000154134
-4.65247e-05
0.000150401
-1.4069e-05
2.78039e-05
-4.51305e-05
9.39495e-06
0.000141182
3.29124e-05
-4.0613e-05
6.5838e-05
3.8759e-05
-2.93375e-05
-3.00343e-05
-5.72274e-06
6.48902e-05
-3.88518e-05
0.000130689
-4.9643e-05
7.59363e-05
-3.69508e-05
9.97784e-06
-6.46461e-05
3.6275e-05
-2.49825e-05
-3.81784e-05
1.75792e-05
-6.32815e-05
-6.81191e-05
7.20707e-05
-4.26059e-05
-4.93641e-05
-9.92033e-05
-0.000139118
9.75179e-05
-3.39861e-05
-0.000114887
-0.000112189
4.0484e-05
-2.15921e-05
-4.61722e-05
0.000109451
7.06452e-05
-4.02322e-05
6.59099e-05
-3.00455e-05
4.02908e-05
0.000171771
-0.000140593
-0.000213177
-5.79014e-05
-5.55324e-06
6.44502e-05
-0.000166967
8.32402e-05
7.40779e-05
-5.58107e-06
1.56964e-05
0.000152073
4.79013e-05
2.48025e-05
-1.09859e-05
-6.54359e-05
-9.80821e-05
-5.30048e-05
-2.28535e-05
0.000155693
6.38091e-05
4.59803e-05
-3.64105e-05
-0.000112675
-4.98447e-05
1.40639e-05
6.13148e-06
-2.2118e-05
3.62445e-05
6.2734e-05
2.96991e-05
7.35475e-05
-3.08979e-05
-8.75968e-05
1.02574e-06
0.000234073
-6.07653e-05
-8.99276e-05
4.31335e-05
9.36026e-05
4.04281e-05
-5.69923e-06
-7.08201e-05
-1.62119e-05
-8.73026e-05
-9.12336e-05
7.18271e-06