# vtk DataFile Version 1.0
Net Charge Density
ASCII
DATASET STRUCTURED_POINTS
DIMENSIONS 256 128 1
ORIGIN 0 0 0
SPACING 0.15625 0.15625 1
POINT_DATA 32768
SCALARS rhonet float
LOOKUP_TABLE default
-8.89965e-05
-0.00016443
6.73251e-05
0.000180924
3.86278e-06
0.000191473
3.31746e-05
-3.29301e-05
0.000211425
0.00020405
2.30238e-05
0.000279595
0.000127751
-0.000183836
-0.000216213
0.000243326
0.000142679
-9.86999e-05
-2.87006e-05
2.38952e-05
4.87675e-06
0.000126141
-8.77728e-05
5.35578e-05
9.73924e-05
2.47742e-05
7.28208e-05
7.33129e-05
0.000266094
4.45558e-05
-0.000187995
-0.000141228
0.00013852
0.00019782
4.20047e-05
0.000104592
0.000146123
-7.05898e-05
3.8959e-05
2.23196e-05
0.000178941
0.00013508
8.85107e-05
0.000102748
0.000125257
6.33788e-06
2.51115e-05
8.20983e-05
5.31513e-05
0.000119897
0.000161602
-1.11038e-05
0.00015061
0.00017972
-9.16778e-05
-3.29586e-05
-3.99987e-05
0.000187685
0.000135206
0.000108327
-0.000173156
0.000276284
0.000165612
-3.8438e-05
-0.000121113
5.01913e-05
-8.66069e-05
0.00015755
1.5198e-05
-7.60974e-05
-6.64494e-05
-0.000151567
-3.41679e-05
0.000301609
7.66139e-05
-4.76977e-05
6.83877e-05
0.000145776
6.34148e-05
1.53659e-05
-0.000111347
-6.43473e-05
0.000307742
0.000107896
0.000156533
0.000151515
0.00018837
-0.000153581
0.000203114
0.00031454
8.47188e-05
-5.6747e-05
3.65137e-06
4.21898e-05
-1.17711e-05
0.000185572
-6.01255e-05
9.2515e-05
-0.000105055
0.000513904
0.000181121
-4.06468e-05
0.000103039
-1.57754e-05
1.81862e-05
0.000185247
1.56634e-05
-3.30393e-05
3.95838e-05
-5.65072e-05
9.67324e-05
0.000135004
-7.10147e-05
-0.000116246
-0.000293087
-1.2051e-05
0.000196575
0.000161801
1.39733e-05
-0.000188641
5.74626e-05
1.23903e-05
6.4616e-05
4.70162e-05
1.39866e-05
-2.69527e-05
8.53458e-05
2.44344e-05
0.000183679
2.48261e-05
3.65498e-05
0.000122553
9.48426e-05
-3.01062e-05
9.04199e-05
5.78713e-05
0.000279149
0.000120272
0.000106484
-0.000217123
-4.58071e-06
6.54798e-05
-4.926e-06
4.93007e-05
-3.99715e-05
0.00010235
0.00016881
-3.912e-05
3.76489e-05
0.000252592
-8.82366e-05
-4.8202e-05
0.000177523
0.000274355
0.000128819
6.23012e-05
0.000135928
8.18423e-06
4.77416e-05
6.06261e-05
0.000130788
0.000107804
-8.37162e-05
9.65772e-05
-5.18435e-05
-0.000102245
0.000160799
0.00021839
0.000229294
4.46853e-05
-5.02177e-05
-2.03366e-06
-6.93253e-06
-3.22647e-05
9.88856e-05
0.000118853
0.000188594
-3.82813e-05
-0.000114186
9.3081e-05
0.000170248
0.000170585
-5.99467e-05
-0.000114894
3.01125e-05
0.000124835
0.000147016
0.000125632
0.000105982
0.000260402
0.000187682
0.000105557
7.29117e-05
-8.07226e-05
-0.000155445
0.00030499
0.000208996
3.35147e-05
0.000190698
6.13381e-06
7.67189e-06
1.5195e-05
0.000192277
8.82994e-05
-0.000104467
0.000146709
-5.74141e-05
-8.37946e-06
-8.24683e-05
0.000302362
-2.56734e-05
-0.00012002
0.00013921
0.000212545
-6.37432e-06
-5.47469e-05
3.51248e-05
5.77909e-05
4.46549e-05
0.000108326
-9.9318e-05
-0.000142599
0.000304249
8.57082e-05
-0.000139694
0.000208727
-8.71236e-05
6.99726e-05
-0.00020923
3.6551e-05
0.000211047
-0.000121397
-8.78273e-05
0.000243595
0.000104742
7.16868e-05
0.000175832
-8.41689e-05
0.000117092
0.000292925
3.00534e-05
-0.000198832
0.000113081
8.61071e-05
0.000117134
0.000126007
4.07925e-05
2.43263e-05
0.000117619
-7.49808e-06
6.64266e-05
-0.0001827
-1.10202e-05
-0.000116789
-5.03095e-05
0.000113211
9.38511e-05
7.10983e-06
-1.07265e-06
-0.000114282
1.30755e-05
-9.59644e-05
-0.00018783
-1.47216e-05
0.000141969
-0.000105543
-2.11771e-05
0.000159347
-6.05981e-05
-0.000104908
-0.000191295
-3.15248e-05
2.67864e-05
-8.83366e-05
2.81916e-05
6.03007e-05
-2.11126e-05
-0.000153984
-6.7096e-06
-0.000122242
-5.2899e-05
-0.000213783
8.63425e-05
2.43848e-05
1.32911e-06
-1.46823e-05
-4.76752e-05
0.000114567
-3.24089e-05
-5.61192e-06
-1.98614e-05
-3.6921e-05
-3.48268e-06
-0.000116264
-5.2555e-05
-1.27126e-06
-2.64917e-05
-0.000104853
-3.60252e-05
8.13333e-05
-0.000105781
-0.000144953
7.52911e-05
4.11216e-05
-2.63746e-05
3.98704e-05
-9.31579e-05
4.8626e-05
8.56118e-07
4.31889e-06
-0.000119127
-7.30139e-05
6.05753e-05
2.74992e-05
-0.000101008
6.03886e-05
-2.35742e-05
-0.000135273
-4.44648e-06
1.76308e-05
-0.000143069
5.91769e-05
-6.20319e-06
4.06075e-05
8.06638e-05
-7.99191e-05
3.6455e-05
-5.82088e-05
-9.32347e-06
5.90803e-05
4.19958e-05
3.69134e-05
-4.19624e-05
-5.43676e-05
3.41018e-05
-4.67341e-05
-0.0001537
-6.71796e-05
6.00317e-05
-4.68121e-05
-3.43912e-05
-8.82401e-05
4.55752e-05
-0.000176052
1.12816e-05
-0.00015407
-0.000127912
-9.47625e-05
-6.21468e-05
-4.8089e-05
5.24874e-05
-3.36813e-06
-0.000122984
4.3098e-05
-0.000154294
6.53999e-05
-0.00010901
-7.15222e-05
-5.4653e-05
0.000123682
-2.69082e-05
3.08172e-05
-0.000163154
0.000118408
-4.62126e-05
-0.000235137
-5.79344e-05
-7.17837e-05
-0.000163478
5.96766e-05
1.6147e-05
-7.24092e-05
2.98854e-05
-4.80521e-05
-4.5863e-05
-7.19617e-05
-3.38637e-05
-0.000109087
7.39488e-05
9.90364e-05
3.75017e-05
8.90736e-05
1.5696e-05
-6.02792e-05
2.84291e-05
-7.58176e-05
-6.37136e-05
0.000168836
-6.88592e-05
-0.000162258
2.27819e-05
1.59466e-06
-7.45538e-05
-0.000121428
-1.7772e-06
-0.000190662
0.00010786
0.000110056
-2.80037e-05
-1.88081e-05
-0.000179984
-8.35257e-05
9.67799e-05
8.11345e-06
6.51637e-05
0.000115119
-8.75529e-05
-5.667e-05
4.4885e-05
-0.000137129
-9.15066e-05
-0.000117078
7.77822e-05
-6.16326e-05
-7.80411e-05
-4.3861e-05
6.10389e-05
-0.000105036
5.42321e-05
3.28163e-05
8.62771e-05
-5.37978e-05
-4.06352e-05
1.56846e-05
-4.02804e-05
-0.000211141
2.38118e-05
0.000203273
-1.50739e-05
4.13631e-05
-8.67893e-05
-6.52755e-05
3.89041e-05
-0.000102638
1.51227e-05
-4.97358e-05
-2.76995e-05
2.26522e-05
-3.52244e-05
-0.000176034
-0.000125343
-3.13108e-05
-3.65893e-07
-0.000170566
-4.75526e-05
-5.78198e-05
-0.000183783
-2.11976e-05
5.88744e-05
5.74137e-06
-3.58103e-05
-5.21936e-06
-8.06737e-05
-0.000193738
-0.000104422
-3.91721e-05
4.23505e-05
-9.05201e-05
-7.62012e-05
-8.528e-06
0.000146161
-0.000152342
-5.9685e-05
9.52001e-05
-0.000116926
9.23371e-05
-9.78986e-05
-1.4719e-05
0.000151848
2.37788e-05
-7.93703e-05
-2.82906e-05
-1.9288e-05
-2.44336e-05
-0.000142312
0.000105529
4.18114e-05
1.3664e-05
-1.15989e-05
-2.04688e-05
-2.06521e-07
-1.97635e-05
2.1121e-05
0.000109334
-0.000261437
4.28499e-05
4.00644e-05
-7.67001e-05
-6.17964e-05
-1.02733e-05
-0.000159574
-8.18924e-05
7.35668e-05
-4.22968e-05
9.23174e-06
-1.98816e-05
9.94559e-06
-8.8755e-07
-5.61633e-05
-3.99556e-05
-5.35062e-05
-0.000102719
9.00062e-05
-0.000219845
-0.000120905
-5.90221e-05
4.97609e-05
-3.80762e-05
-1.36702e-05
-2.83041e-06
-8.34801e-05
1.19552e-05
-7.01742e-05
-3.17388e-05
1.34769e-05
5.83427e-05
-0.000137647
-8.99403e-05
0.000151386
1.51151e-05
-6.14126e-06
-0.000129066
3.11778e-05
0.000173843
-0.000137103
4.43445e-05
0.000100966
9.51393e-06
9.3428e-06
4.56324e-05
-4.53e-05
0.000231801
-1.65905e-05
-9.65686e-05
0.000247102
-6.24573e-05
-9.62123e-05
4.41668e-05
-6.78138e-05
-9.39944e-05
-3.89074e-05
6.94152e-05
5.60174e-05
3.48884e-05
-0.000183194
5.50053e-05
9.55174e-05
2.66577e-05
-3.39597e-05
0.000120548
5.0033e-06
-7.52767e-05
0.000127643
-7.99589e-05
-8.11343e-05
-0.000202426
6.17064e-05
-9.95561e-05
-5.43231e-05
-5.94812e-05
-9.60125e-05
0.000116062
-0.000147445
1.14926e-05
-7.43308e-05
0.000155805
7.66397e-05
-6.99934e-05
7.37105e-05
-2.04373e-05
-8.95966e-05
9.62395e-05
-3.38344e-05
-3.49064e-05
4.17581e-05
0.000162895
3.636e-05
8.77914e-05
-3.58351e-05
-2.20581e-05
-3.02284e-06
-1.37128e-05
3.0427e-05
5.12847e-05
-1.66396e-05
-6.64194e-05
-0.000106226
-3.41022e-05
-0.000114615
-1.21314e-05
2.69827e-05
0.000152796
4.25638e-05
-6.62482e-05
1.30306e-05
0.000125128
-3.36292e-05
0.000125025
-3.74269e-05
-0.000105816
-9.70291e-05
0.000180478
2.01127e-05
3.31972e-05
4.16911e-05
0.000125363
-0.000130524
0.000146989
3.85047e-05
-9.22035e-05
-5.52752e-06
-2.88952e-05
-7.75096e-05
-0.00016559
-6.21092e-05
8.73228e-05
0.00013541
-5.54548e-05
8.2791e-05
8.54183e-05
0.000115635
-8.62873e-05
4.55808e-05
0.000119126
0.00018409
2.4063e-06
0.000137161
5.34616e-05
5.22605e-05
5.68457e-05
0.000167473
-5.51227e-05
-1.33791e-05
-4.05207e-05
-0.00012564
6.85597e-05
-1.32681e-05
3.22419e-05
-2.87497e-05
-4.65666e-05
-8.74827e-05
-7.05929e-05
7.68013e-05
-9.85498e-05
4.49254e-05
-7.86618e-05
9.82094e-05
-0.000145106
-0.000182992
0.000104832
-1.31573e-05
-7.55029e-05
0.000210965
-6.38557e-05
8.74361e-05
0.000118603
-0.000142688
0.000153399
0.000188841
-0.000133898
-3.04491e-05
-8.05347e-05
-1.98928e-05
-2.80349e-05
5.0024e-05
-0.000123372
-0.000185927
2.17021e-05
2.22623e-05
-4.22009e-05
8.28359e-05
-0.000114716
-1.43953e-05
-3.40615e-05
-0.00010146
3.65769e-05
-5.14571e-05
0.000108135
-1.38625e-05
-8.48667e-05
1.70888e-05
0.000166328
4.82558e-05
-0.000137475
-0.000130724
-9.48517e-06
4.53359e-05
-0.000128978
5.08637e-05
1.61456e-05
-0.000157478
0.000116752
-5.86519e-05
-9.88622e-06
2.70254e-05
5.98147e-05
5.88679e-05
7.47683e-05
-2.03855e-05
6.78028e-05
-9.19697e-05
-5.68992e-06
-0.000144547
0.00017434
-1.03789e-05
-3.03925e-06
3.54416e-05
7.37602e-05
5.43416e-05
-7.24924e-05
-4.39924e-05
-3.61349e-05
2.63092e-05
0.000149055
6.7711e-05
-0.000108175
2.75089e-07
-0.000102251
0.000191155
-4.92437e-07
2.48825e-05
1.41292e-05
-5.52988e-05
-0.000112945
1.64523e-05
5.99893e-05
-0.000104574
-2.01638e-05
-2.06163e-05
-2.06784e-05
2.71744e-05
3.29524e-05
9.95218e-05
-4.56782e-05
-3.4027e-06
3.48245e-05
5.44946e-05
4.12606e-05
0.000162434
-7.54965e-05
-7.04982e-05
-8.70787e-07
0.000148986
8.32417e-05
6.13598e-05
7.60473e-05
-1.61112e-05
-8.15582e-06
0.000102876
4.52765e-05
3.04822e-06
1.02988e-05
9.89579e-05
-6.89167e-05
3.3809e-05
7.08601e-05
-5.00828e-05
-0.000160351
2.85008e-05
-3.94695e-05
0.000187725
0.000159625
2.64987e-05
9.43412e-05
4.62709e-05
5.01319e-06
-5.53345e-06
0.00016653
-0.000108887
6.76441e-05
7.97849e-05
2.64238e-05
-3.33122e-05
-3.69871e-05
0.000154182
-0.000138618
-8.34803e-05
3.13441e-05
1.95613e-06
7.74229e-05
-8.67886e-05
-0.000106185
0.000124944
-3.27185e-06
3.75246e-05
9.61649e-05
-6.26931e-05
0.00019247
1.75205e-07
-0.000103404
-1.46432e-05
-7.02793e-05
0.000126966
-4.42555e-05
-3.12376e-05
-6.08345e-05
0.000185488
6.59481e-06
-2.88454e-05
2.55776e-06
-4.1951e-05
2.8881e-05
-7.87321e-05
-0.000245335
-4.55719e-06
1.4184e-06
-2.96712e-05
-0.000100694
6.97644e-05
9.95686e-05
2.10071e-05
9.2002e-05
0.000134083
6.70762e-06
-3.21706e-05
-1.05823e-05
0.000141855
-7.66038e-05
-3.0268e-05
-9.20405e-05
-5.64925e-05
-6.99649e-05
-1.04192e-06
-3.1268e-05
-1.03472e-05
-1.91767e-05
6.47304e-06
-1.19121e-05
1.19e-05
-0.00012422
-0.000133447
2.95361e-05
2.01779e-05
7.01149e-05
-6.80155e-05
0.000112859
-5.64296e-05
-0.000102791
3.18146e-05
9.65788e-05
0.000142974
-0.00021521
-2.51565e-05
0.000155176
-7.08781e-05
-1.83471e-06
-9.00578e-05
-6.12388e-05
3.06275e-05
-2.73812e-05
0.000121418
-7.09167e-06
-0.000136559
5.42088e-05
-8.1833e-06
-8.82489e-05
-4.20713e-06
6.04574e-05
1.07242e-06
-0.000111191
-8.29689e-05
-0.000135973
-2.61222e-05
7.20009e-05
-0.000131597
2.96023e-05
2.2829e-05
-6.37443e-05
0.00025458
-1.29699e-05
-0.000103429
-5.66975e-05
-0.000126446
-7.45128e-06
9.49729e-05
-0.000134313
2.41231e-05
-7.84073e-05
9.7584e-05
3.62002e-05
9.45171e-05
2.15509e-05
-2.06132e-05
-3.88101e-05
-0.000148647
0.000226775
9.63687e-05
-7.63236e-05
2.87779e-05
8.77604e-05
-8.39323e-05
-2.85241e-05
0.00010019
-0.000145643
7.67793e-05
4.41064e-05
6.33269e-05
3.54638e-05
-4.70189e-05
6.01048e-05
0.000238689
-1.13711e-05
1.32808e-05
4.61284e-05
9.35653e-05
0.000111443
6.89398e-05
4.29255e-05
5.71758e-05
-0.000123357
-2.5751e-05
2.09776e-05
-7.54533e-05
-5.305e-05
3.71691e-06
-4.13265e-05
0.000107549
-7.41156e-05
-8.3864e-05
3.1566e-05
-0.000155529
-4.05894e-06
8.19245e-05
7.88565e-05
8.92137e-06
-0.000158252
0.000104388
6.37076e-05
-9.68605e-05
8.46956e-06
-2.26422e-05
2.0225e-05
-5.80791e-05
-4.53766e-05
-0.000111838
-1.58462e-05
4.6669e-05
8.89623e-06
1.8482e-05
0.000207152
1.02583e-05
3.13814e-05
0.000133191
4.81966e-05
4.80295e-05
4.55591e-05
2.47974e-05
0.000182448
-2.09904e-05
-5.10676e-05
-0.00016566
-1.12361e-05
1.81828e-05
-8.31874e-05
-4.87242e-05
-7.17363e-06
6.01658e-06
-7.74844e-05
6.14959e-05
8.30097e-05
5.09628e-05
-9.22207e-06
-1.73692e-05
4.86069e-06
0.000144273
-9.19848e-05
-0.000114029
-6.52785e-05
-1.09931e-05
8.5671e-05
-5.85103e-07
-1.54509e-05
0.000174422
0.000100693
-6.32094e-05
-0.0001399
1.7643e-05
-7.06062e-05
3.54819e-05
-0.000141505
8.52e-05
7.9514e-05
-0.000127984
1.78963e-05
4.63219e-05
0.000139067
-4.06969e-05
-0.000219237
1.18932e-05
6.91259e-05
0.000103412
3.0139e-05
1.81209e-05
-8.48224e-05
-2.77942e-05
-3.61355e-05
-4.225e-05
2.46972e-05
-0.000103875
-0.000121247
-1.83885e-05
-5.68031e-05
-0.000118191
-0.000102747
9.25112e-05
2.27754e-05
1.13469e-05
-0.000100635
-2.48379e-05
-9.26367e-05
3.89395e-05
5.6729e-05
-3.55967e-05
7.58737e-05
0.000112991
2.82421e-05
-6.06354e-05
1.33616e-05
-4.06095e-05
-1.7771e-05
8.73166e-05
-0.000233145
-0.000133023
0.000155852
-4.31322e-05
-1.50558e-05
-9.80089e-06
-1.25053e-05
3.9553e-05
-6.42717e-05
3.49199e-06
-0.000116738
-9.34419e-06
2.47865e-05
7.48534e-05
-0.000201997
-7.66099e-05
5.21201e-05
6.21418e-05
-2.86256e-05
-7.18143e-05
-8.01744e-05
-4.28617e-05
9.60904e-06
-5.6732e-05
-7.19768e-05
-4.84583e-05
1.45552e-05
0.000141873
0.00012703
1.97324e-06
9.00916e-05
5.61426e-05
-0.000165351
3.27246e-05
-6.42675e-05
9.1983e-05
-1.09919e-06
0.000159573
-1.119e-05
-3.98193e-05
0.000106628
2.95396e-05
0.000145453
-0.000168276
-0.000103097
-5.2359e-05
4.49666e-06
2.28058e-06
6.18857e-05
-3.49617e-05
-0.000110268
8.19857e-05
-8.72056e-05
0.000166318
-0.000134454
4.82148e-05
-8.84756e-06
-3.29816e-06
7.4273e-05
-5.85734e-05
3.09364e-05
5.62635e-07
-9.50581e-05
6.60252e-05
-2.82361e-05
-8.41318e-05
-6.04369e-05
5.38502e-05
0.00025675
-0.000159861
2.50961e-05
3.67751e-05
-2.15393e-05
7.59184e-05
-7.97817e-05
0.000149189
-0.000147423
7.61396e-05
-3.72761e-05
2.41607e-05
-6.29661e-05
-3.29037e-05
1.48168e-05
-4.53114e-05
-8.09518e-05
-7.09493e-05
0.000223434
-8.89176e-05
-7.1096e-05
5.0938e-05
-0.000254145
2.66444e-05
0.000193971
1.43191e-08
6.41404e-05
-9.98834e-05
3.32802e-05
4.92507e-05
4.34159e-05
-0.000144352
7.04251e-05
-1.6971e-06
-0.000104599
-6.99658e-05
-2.57336e-06
3.46662e-06
0.000126864
-8.41727e-05
0.00011235
-7.54255e-06
7.81054e-06
-0.000189092
2.34591e-05
-8.62707e-06
-0.000121177
-2.05013e-05
-6.07863e-06
5.2964e-05
-0.000192091
-9.77204e-05
-8.9244e-07
-9.43686e-06
-0.000140861
1.41958e-05
0.000150768
-2.41939e-05
-5.04702e-05
-0.000102181
-7.32186e-05
4.00085e-05
-8.40155e-05
-2.61993e-06
7.21649e-05
-5.01552e-06
-0.000208037
-5.41102e-05
5.78302e-05
3.01236e-06
-0.000111918
6.54056e-06
-5.46845e-05
-5.08742e-05
-0.000133588
3.31152e-05
-4.74055e-06
-5.78372e-05
1.08753e-05
-4.19097e-05
-7.33049e-05
-5.93818e-05
-6.37656e-05
-7.91919e-05
0.000179464
1.76673e-05
2.41752e-05
4.90124e-05
9.09173e-05
1.51544e-05
2.98345e-05
0.000123129
-3.18809e-05
-5.28046e-05
4.12742e-05
-3.41267e-05
3.48027e-05
5.96385e-05
4.79476e-05
4.51225e-05
-8.75884e-05
-0.000116376
0.000112258
0.000105033
5.79011e-05
-5.89758e-05
-0.000101084
-4.49347e-05
1.35778e-05
-8.03007e-05
-7.24146e-05
-5.80538e-05
-8.03941e-06
8.58204e-05
4.42255e-05
1.9677e-05
6.93055e-05
-1.1445e-05
4.66339e-05
0.000114619
6.39139e-05
2.45427e-05
1.20534e-05
-3.64087e-05
0.000183935
-4.00506e-05
-9.58395e-05
-7.97369e-05
-6.42383e-05
0.000156117
-6.36356e-05
-2.02828e-05
4.17395e-06
-4.45124e-05
7.46371e-05
4.88353e-05
-3.6368e-05
-0.000136864
2.26917e-05
8.50551e-05
-0.000120948
5.87201e-05
8.04801e-05
0.000141268
-9.61543e-05
-4.66134e-05
9.0152e-06
9.69321e-06
-7.78126e-05
-0.000100692
-1.29173e-05
-5.87938e-05
0.000103821
-6.09952e-05
8.94499e-05
9.4511e-05
-0.000128505
-4.94942e-05
-4.36886e-05
-7.08309e-05
-0.000152902
8.99584e-05
3.93855e-05
-3.43996e-05
8.36037e-05
-8.62691e-05
1.9039e-05
0.000105029
6.92384e-05
-0.00015256
-1.11228e-05
1.29405e-05
-3.59841e-05
-0.000109607
-9.22417e-06
4.99606e-05
-0.000108295
-2.22257e-05
0.000162948
-3.69205e-05
-8.13971e-05
7.08315e-05
7.32476e-05
-0.000151625
1.86785e-05
-8.27658e-05
0.000149286
0.00020864
-8.35496e-05
0.00020018
-0.000120059
-1.88104e-05
6.65957e-05
2.44023e-05
3.58018e-05
-2.18059e-05
2.20283e-05
9.15909e-06
-1.01896e-05
7.7302e-05
0.000114986
0.000149647
-0.00023387
-7.6415e-05
-7.88824e-05
-9.34928e-05
-2.89038e-05
-6.38493e-05
-1.02567e-05
6.8024e-05
8.09906e-05
-9.77294e-05
-4.77611e-05
2.20705e-05
-9.07248e-06
-7.34441e-05
-2.47918e-05
-5.54186e-05
-0.000158401
-0.000131673
-0.000131401
0.000161567
-3.50305e-06
0.000106311
6.27385e-05
8.72306e-05
2.11261e-05
-3.42298e-05
6.97586e-05
-0.000100716
-5.44621e-05
3.59346e-05
0.000133589
-0.000108584
-3.32657e-05
3.54219e-05
1.38136e-05
0.000106503
3.69296e-05
-6.15639e-05
1.4297e-06
3.041e-06
-1.18787e-05
4.29854e-05
-0.000108531
5.9281e-05
-7.51624e-06
-9.04318e-05
0.000141919
-2.30519e-05
6.78864e-06
3.79235e-05
-0.000152063
4.06213e-05
5.02768e-05
0.000112594
0.000128136
-0.000125756
1.0531e-05
-5.09268e-05
2.98409e-05
2.57909e-05
-8.11833e-05
0.0001153
6.59631e-05
6.76941e-05
-0.000130828
-0.00011262
0.000101887
1.27114e-06
4.53311e-05
-8.13745e-05
-5.4419e-05
1.97912e-05
0.000133827
-0.000102773
2.49997e-05
2.97732e-05
-0.000129572
0.000129191
0.000223764
-9.91625e-05
3.2855e-05
-1.16026e-05
-8.31761e-05
-9.07928e-05
0.000253357
5.35445e-05
8.9908e-05
-1.28828e-05
1.56278e-05
-1.3513e-05
-6.94776e-05
0.000116717
6.96396e-07
-0.000128638
9.77193e-05
-3.5909e-05
7.80553e-06
-3.26316e-05
2.09059e-06
-0.000176927
3.63812e-05
8.55341e-05
3.70922e-06
-5.72655e-05
-6.51202e-05
3.48394e-05
7.93121e-05
-2.30513e-05
-9.24059e-05
0.000148317
2.08896e-05
-0.000112436
-1.74926e-06
2.79107e-05
0.000137688
2.49792e-05
9.28806e-05
-7.91812e-05
-3.03597e-05
-2.91762e-05
-9.09555e-05
2.60478e-05
5.77994e-05
-3.75828e-05
-1.97818e-05
0.000156924
1.18951e-05
-4.09652e-05
-4.77943e-06
6.18375e-05
3.51768e-05
-7.29747e-05
2.94537e-05
-4.75405e-05
-0.000199166
-5.49509e-05
0.000113419
1.65846e-05
0.000119959
-4.95458e-05
-5.48705e-05
-4.40066e-05
-0.00013232
-1.10687e-05
-3.26021e-05
2.95193e-05
-6.70105e-05
-5.68007e-05
4.42576e-05
0.000101566
-3.75586e-05
6.88521e-05
2.77112e-05
-1.84726e-05
6.68014e-06
2.38258e-05
-5.53909e-05
-4.54469e-05
-0.000216462
-2.1141e-05
-1.80874e-06
-2.24016e-05
-1.20921e-05
0.00010017
-2.95334e-05
-7.851e-05
-5.64095e-05
3.54523e-05
-0.000122102
2.53571e-05
-5.1548e-05
-4.73848e-05
-0.000177943
9.91318e-05
-2.02771e-05
-9.0528e-05
-0.000160802
3.1586e-05
2.08629e-05
0.000123533
2.6199e-05
0.000129311
0.000128507
-0.000103171
0.000114865
-0.000114433
-0.000105036
8.21948e-05
2.43436e-06
-7.25683e-05
7.05039e-05
-7.86389e-05
6.73996e-05
-0.00012797
-0.000100283
-0.000118212
-7.90138e-05
0.000137716
0.000141568
9.92976e-06
7.19057e-05
0.000100329
2.52509e-05
1.4744e-06
8.82397e-05
5.7572e-05
-6.2453e-05
8.51986e-05
-0.000157947
1.81689e-05
-3.88641e-06
4.89349e-05
4.22925e-05
-0.000100305
-1.68709e-06
-1.68706e-05
0.000236002
-3.15241e-05
0.000154999
8.43905e-05
-0.00017859
-0.000125187
8.1485e-05
0.000228193
9.75174e-05
5.026e-06
-2.93703e-05
-2.13408e-05
-8.04639e-06
0.000111529
1.98139e-07
1.47173e-05
2.26222e-05
-5.05619e-05
-1.8626e-05
-9.56478e-05
1.27169e-05
-6.36966e-06
-4.83731e-05
-0.000162495
-0.000150669
-0.000123185
-0.000130302
-0.000143542
2.76939e-05
-1.19654e-05
2.7847e-05
9.66759e-05
-0.000155889
-2.90859e-05
4.30584e-05
5.52194e-05
5.57832e-05
-7.19583e-05
8.21791e-05
3.18e-05
-1.6143e-05
0.000118334
-3.50527e-05
6.98173e-05
5.22407e-05
-7.46017e-05
0.000128429
6.87912e-05
5.37093e-05
0.00016408
-6.8103e-06
5.29117e-05
6.07586e-05
0.00010507
-3.679e-05
6.41253e-05
3.23202e-05
1.73885e-05
-6.47983e-05
3.52537e-05
-5.44684e-06
-5.82708e-05
1.32608e-05
7.89587e-06
3.92075e-06
-6.19178e-05
-0.000115362
0.000189382
-7.03008e-05
3.24494e-05
-1.29214e-05
1.29638e-05
3.50396e-05
-3.84762e-05
-0.000227834
1.54444e-05
6.68489e-05
0.000208984
-0.000137775
-0.000119738
3.37954e-06
-6.67844e-05
5.28109e-05
0.000212003
-5.04098e-05
4.52356e-05
6.23984e-05
6.92613e-06
3.33384e-05
-6.37037e-05
-0.000141852
-8.25961e-05
-2.83283e-05
6.21285e-05
7.06129e-05
-5.4114e-05
7.35444e-05
-7.91078e-05
-5.05354e-05
-4.26946e-05
-7.86113e-05
0.000134599
8.86421e-06
2.62051e-06
-3.53695e-05
-5.94271e-05
3.82782e-05
0.000139263
3.07462e-05
7.92183e-06
-4.54559e-05
9.66459e-05
-7.32994e-05
5.74463e-06
0.000131036
-4.60164e-05
6.88415e-05
1.5473e-05
-8.83697e-05
-5.20662e-05
1.93808e-05
-2.46968e-05
-0.000105775
5.53709e-05
8.18244e-05
-1.16582e-05
7.75494e-05
-7.53812e-05
1.98965e-05
-6.55055e-05
8.65611e-05
-3.59192e-05
3.04584e-05
-5.88946e-05
9.53046e-06
8.2546e-05
7.46209e-05
0.000122709
-5.17645e-05
-0.000140594
0.00019018
9.2109e-06
3.64259e-05
9.16631e-05
-3.47008e-05
4.36617e-05
3.07767e-05
-0.000150937
-8.95241e-05
0.000129958
-3.13125e-05
-7.87963e-05
6.6621e-06
-1.8935e-06
5.44359e-05
-0.000157931
6.44325e-05
4.38967e-06
3.60432e-05
-2.89263e-05
8.61721e-05
-1.95216e-05
0.000125604
-4.93163e-05
-0.000227412
-8.44889e-05
5.98041e-05
9.8701e-05
1.23552e-05
-5.95481e-05
-9.3849e-05
-3.79933e-06
9.86271e-06
2.55558e-05
-2.09049e-05
5.29065e-05
0.000165624
1.71975e-05
-1.62062e-05
8.63126e-05
9.68995e-05
0.00013841
-7.13125e-05
-9.83442e-05
-0.000187773
5.00733e-05
-0.000108282
-4.20373e-05
5.10602e-05
-1.11756e-05
-0.000140328
-4.61562e-05
9.76487e-05
1.93273e-06
0.000108967
-0.000172523
9.25409e-06
-0.000121084
-5.38623e-05
0.000162285
6.13241e-05
-2.99655e-05
7.61803e-05
0.000115906
-6.37937e-05
3.29332e-05
2.1453e-05
-4.11295e-06
5.75259e-05
2.30669e-05
2.59975e-05
-0.000109766
-5.54884e-05
-8.38377e-06
2.87625e-05
9.90405e-05
-4.363e-05
1.81713e-05
-0.000169497
6.91155e-05
0.00012983
-9.32175e-05
-1.71873e-05
-6.78559e-05
-1.37762e-05
-2.54693e-05
4.1512e-05
2.2468e-05
-9.0669e-05
2.38977e-06
2.23627e-05
-1.01799e-05
-2.06266e-05
8.91829e-05
-1.04983e-06
-7.0181e-05
6.77117e-05
-0.000114379
0.00017775
6.07076e-05
-6.39322e-05
-4.53338e-05
-9.1569e-05
5.09653e-05
0.000144512
3.6374e-06
9.31625e-06
-4.96003e-05
-2.26528e-05
-0.000135984
6.1702e-05
-8.23098e-05
-2.61459e-05
6.40772e-05
-3.31928e-05
3.07759e-05
8.76581e-05
-0.000151893
-5.16765e-05
1.66293e-05
-6.09265e-05
-0.000119047
6.81183e-05
1.12377e-05
-9.24431e-06
-5.5396e-05
0.000118444
-2.72867e-05
-0.000138147
4.61021e-05
4.37256e-06
3.15582e-05
-5.22425e-05
-7.02605e-05
5.66057e-05
0.000132814
0.000165443
0.00012442
5.914e-05
-9.19702e-05
1.81688e-05
6.40901e-06
8.71535e-05
4.34438e-05
8.68458e-05
-6.83205e-05
2.92049e-05
-3.11065e-05
2.90948e-05
7.03549e-05
-7.91659e-05
0.000121496
1.46347e-05
-3.86849e-05
-5.53842e-05
-9.6024e-05
0.000150603
4.095e-05
-7.54478e-05
-6.59029e-05
3.99819e-05
-3.86499e-05
0.000112857
-0.000197858
4.93146e-05
-6.38689e-05
-1.77037e-05
-2.65971e-05
-0.000101565
-1.84752e-05
-3.32672e-05
-1.24195e-05
-1.43063e-05
2.1148e-06
-3.65267e-05
2.22865e-05
-5.77044e-05
0.000197708
-0.000151495
-5.895e-05
0.000137779
2.68321e-05
-9.80287e-05
-0.000124932
3.11434e-05
-1.91438e-05
1.89792e-06
9.94828e-05
0.00023289
7.02443e-05
-0.000154902
-8.72557e-05
0.000162866
4.77815e-06
-3.19094e-06
2.80285e-05
5.15273e-05
2.49968e-05
0.000113019
-0.00010313
6.42869e-06
-6.80701e-05
5.2125e-05
9.98094e-05
3.75337e-05
-1.25121e-05
2.78675e-05
-0.000175122
-3.98159e-05
0.000127756
5.71331e-06
-4.73834e-06
2.42175e-05
-0.000104495
-2.66125e-06
-0.000126257
-6.13292e-05
4.57144e-05
-2.78156e-05
7.88633e-05
0.000187592
0.000142461
-7.18028e-05
3.68711e-05
-7.99714e-05
-9.76782e-05
8.35124e-05
-7.66614e-05
1.73706e-05
3.8821e-05
3.76343e-05
-6.60974e-05
-4.90417e-05
-7.54849e-06
-0.000157611
7.44851e-05
0.000110231
0.000165343
-0.000116037
5.68121e-05
2.02928e-05
-4.26089e-05
4.47267e-05
-3.47779e-05
-3.8984e-05
-7.47688e-05
4.80476e-05
9.04487e-05
-5.58107e-05
-1.13855e-05
3.43542e-06
0.000201405
-5.24531e-05
6.94712e-05
-1.13598e-06
-8.97851e-05
6.21262e-06
-1.40306e-05
-5.95944e-05
3.46324e-05
0.000132579
-3.57154e-05
3.04384e-05
0.000111536
1.88514e-05
-1.74167e-05
-4.32123e-05
-1.18214e-05
-1.31899e-06
2.33717e-05
-2.0171e-05
-7.93706e-05
0.000145507
1.79219e-05
-2.63036e-05
-3.202e-05
7.61119e-05
-8.72649e-06
-0.000197836
-0.000123453
2.00715e-05
4.62926e-05
0.000133335
-1.32771e-05
2.91379e-05
4.53094e-05
-3.26459e-05
-4.05911e-05
0.00012126
6.0939e-05
1.83126e-05
-6.41078e-05
8.71446e-05
-3.52125e-05
-2.23264e-05
2.69901e-05
-0.000210486
0.000114811
-9.1057e-05
0.00014374
1.79429e-05
1.0235e-05
-2.4706e-05
8.52564e-05
0.000171644
-1.39985e-05
-7.11631e-05
-7.28321e-05
5.84448e-05
5.29921e-05
6.56097e-05
-9.69059e-05
-1.35739e-05
0.000129801
0.000239294
-4.43283e-05
3.9789e-05
-1.95487e-05
9.60249e-05
-3.60289e-05
-0.000116182
-2.88164e-05
-4.16203e-05
0.000108467
7.31368e-06
2.43827e-05
-3.95866e-05
-9.52764e-05
0.000234468
8.88015e-05
5.22878e-05
7.42772e-05
6.16398e-05
-4.00974e-05
-8.55417e-05
-0.000195942
-9.6239e-05
-2.4679e-05
4.104e-05
7.28234e-05
-1.15093e-05
0.000226808
0.000109816
-0.000132022
-9.46352e-06
7.56362e-05
-8.9485e-06
3.65063e-05
0.000156297
0.000201727
3.5477e-05
0.00015469
-1.79443e-05
9.59337e-05
9.93994e-05
-0.000144887
-0.000179459
-5.5755e-05
-0.000112793
4.62699e-05
9.80403e-06
-3.30918e-05
-6.04567e-05
4.9884e-06
6.3122e-05
-4.55347e-05
8.09e-05
-4.53433e-05
-5.27853e-05
-3.14519e-06
-3.5705e-05
-9.53022e-06
-6.95036e-05
0.000112653
3.84293e-05
3.97171e-05
0.00011879
0.000150988
-1.51478e-05
-7.94138e-05
9.34931e-06
-0.000194301
9.04885e-06
0.000121528
0.000118376
1.48944e-05
-4.72448e-05
-0.000137434
9.47145e-05
7.65388e-05
2.43278e-05
-5.19562e-05
-9.07074e-05
-7.84026e-05
-0.00013318
0.000166111
0.000142646
-1.28017e-05
-6.76443e-06
6.35246e-05
-0.00016043
6.1154e-05
6.39409e-05
-4.4923e-05
-0.000135077
6.33211e-05
-1.69175e-06
7.03944e-05
-3.51365e-06
2.15794e-05
-9.54932e-05
4.56348e-08
3.93018e-06
-0.000138938
-4.66087e-05
-2.13984e-05
3.82515e-05
4.52856e-05
-5.11388e-05
-4.63856e-05
-3.81472e-05
-3.43006e-05
0.000192355
7.41852e-05
0.000221835
0.000152334
-0.000181402
7.71311e-05
-2.89916e-05
-3.5278e-05
-1.87596e-05
3.99151e-05
7.15946e-05
0.00011
-1.74604e-05
4.86125e-05
1.13272e-07
-2.96717e-05
-2.08383e-08
3.66992e-05
7.52391e-05
-6.67825e-05
-0.00012009
0.000114192
-8.33061e-05
0.000195565
-3.68101e-05
-4.92427e-05
-4.45826e-05
-6.72846e-05
-4.47987e-05
5.05164e-05
9.99526e-05
-0.000119873
-7.21816e-05
3.08804e-05
1.09175e-05
-6.43216e-05
-1.27677e-05
0.000136612
2.14318e-05
-8.01784e-05
0.000107602
-1.95252e-06
1.55651e-05
-0.000126493
-4.68825e-05
8.12872e-05
-2.0891e-05
-8.32627e-05
0.000186634
0.000197409
5.88674e-05
-0.000151034
-0.000109854
-0.000144197
-1.88313e-05
-2.3338e-05
9.07421e-05
0.000110765
8.38423e-07
0.000269336
6.35884e-06
-0.000178776
4.82051e-05
7.13975e-07
4.82134e-06
-7.97911e-05
-8.61997e-05
-1.99099e-05
-4.88927e-05
9.48096e-05
-7.2259e-07
0.000105487
-5.5577e-05
-3.23022e-05
-5.79795e-06
7.00364e-05
-2.66409e-05
5.87758e-06
2.30996e-05
-2.69384e-05
-3.5431e-05
0.000121423
-0.00019233
6.6626e-05
5.3349e-05
-3.13586e-05
-0.000112701
3.98426e-05
8.37328e-05
-0.000135248
-0.000129602
-3.15758e-05
-7.25348e-05
9.45918e-05
8.67737e-05
-0.000117806
-4.82254e-05
2.83646e-06
-0.000207579
2.65405e-05
0.000114953
2.77208e-06
-5.15216e-05
9.70062e-05
0.000128563
-5.79405e-05
4.13863e-05
8.48334e-05
-4.58405e-05
-9.13241e-05
0.000140747
2.60659e-05
-9.71518e-05
7.65489e-05
1.62689e-05
-0.000120146
-0.000104043
-4.25784e-05
0.000110973
2.52866e-05
-0.000134327
-6.40894e-05
0.000116879
5.98417e-05
-7.31114e-05
3.84441e-05
-2.63028e-05
-4.34952e-05
-9.02766e-05
2.1261e-05
-6.14579e-05
0.000181006
6.66184e-05
-0.00014922
-9.56713e-06
0.000104834
8.1027e-05
3.17442e-05
-2.58494e-05
-5.59189e-05
1.56062e-05
-4.15962e-05
4.94542e-05
-7.84523e-05
-0.0001203
1.88595e-05
3.40238e-05
-0.000102925
-9.41432e-05
-6.72647e-05
-2.04026e-05
-4.34596e-05
1.14391e-05
7.69981e-05
-0.000202481
-7.01309e-06
5.69591e-05
0.000138873
2.73669e-06
-1.34448e-05
0.000141716
-9.78189e-05
-1.7568e-05
-0.000114249
-4.51785e-06
0.000133411
-1.63738e-05
2.38847e-05
0.000114089
-1.51454e-05
5.78037e-06
-5.89266e-05
0.000106519
-0.000110708
6.32805e-05
0.000123234
-7.25347e-05
-4.84334e-06
4.0835e-05
-9.35409e-06
-0.00010567
-4.55789e-05
0.000124541
-6.00487e-05
-4.19329e-05
-0.000133914
-2.70046e-05
-2.51987e-05
5.45685e-06
-5.03578e-06
-7.69207e-05
6.50482e-06
0.000116326
0.000127374
0.000166731
-1.05558e-05
-0.000206479
0.000182522
7.48383e-05
-2.78915e-05
7.52546e-05
-4.91737e-05
-1.85496e-05
-1.14245e-05
3.40787e-05
-3.84285e-05
-7.33606e-05
8.69257e-05
6.50196e-05
-9.85952e-05
-5.78468e-06
-1.07908e-05
-5.80209e-05
-9.20605e-05
2.76711e-05
-8.15353e-05
-7.98196e-05
2.13587e-05
0.000112224
9.84111e-05
7.53237e-05
-0.000211937
0.00016368
-7.1971e-05
4.48059e-06
-3.9658e-05
5.87148e-05
3.47935e-05
3.47584e-05
2.93544e-05
4.70504e-06
5.5437e-05
-1.48616e-06
-0.000124396
-3.48361e-06
-5.07142e-05
-2.09996e-05
0.000129397
-2.92568e-05
2.0918e-05
-7.05537e-05
-0.000171928
-3.46856e-05
0.000154134
-4.65246e-05
0.000150401
-1.40687e-05
2.78038e-05
-4.51306e-05
9.39518e-06
0.000141183
3.29127e-05
-4.06129e-05
6.58385e-05
3.87592e-05
-2.93374e-05
-3.00347e-05
-5.72379e-06
6.48908e-05
-3.88516e-05
0.00013069
-4.96435e-05
7.59361e-05
-3.69505e-05
9.97796e-06
-6.46459e-05
3.62755e-05
-2.49823e-05
-3.81781e-05
1.75787e-05
-6.32813e-05
-6.81193e-05
7.20702e-05
-4.26059e-05
-4.93642e-05
-9.92037e-05
-0.000139118
9.75179e-05
-3.39863e-05
-0.000114887
-0.000112189
4.04851e-05
-2.15922e-05
-4.61724e-05
0.000109451
7.06457e-05
-4.02324e-05
6.591e-05
-3.00456e-05
4.02902e-05
0.000171771
-0.000140593
-0.000213177
-5.79009e-05
-5.55359e-06
6.44497e-05
-0.000166967
8.32403e-05
7.40781e-05
-5.58095e-06
1.5696e-05
0.000152073
4.79018e-05
2.48022e-05
-1.09859e-05
-6.54359e-05
-9.80822e-05
-5.30049e-05
-2.28528e-05
0.000155694
6.38091e-05
4.59799e-05
-3.64108e-05
-0.000112674
-4.98448e-05
1.40644e-05
6.13101e-06
-2.21181e-05
3.6245e-05
6.27339e-05
2.96996e-05
7.35475e-05
-3.08983e-05
-8.75969e-05
1.02585e-06
0.000234073
-6.07658e-05
-8.99272e-05
4.31335e-05
9.36028e-05
4.04282e-05
-5.69911e-06
-7.08201e-05
-1.6212e-05
-8.73024e-05
-9.12338e-05
7.18283e-06
-2.21117e-05