# vtk DataFile Version 1.0
Net Charge Density
ASCII
DATASET STRUCTURED_POINTS
DIMENSIONS 256 128 1
ORIGIN 0 0 0
SPACING 0.15625 0.15625 1
POINT_DATA 32768
SCALARS rhonet float
LOOKUP_TABLE default
-8.89965e-05
-0.00016443
6.73246e-05
0.000180924
3.86324e-06
0.000191473
3.31746e-05
-3.29296e-05
0.000211425
0.00020405
2.30237e-05
0.000279595
0.000127751
-0.000183836
-0.000216213
0.000243327
0.000142679
-9.87002e-05
-2.87003e-05
2.38949e-05
4.87641e-06
0.000126141
-8.7773e-05
5.3558e-05
9.73924e-05
2.47742e-05
7.28208e-05
7.33131e-05
0.000266094
4.45559e-05
-0.000187995
-0.000141228
0.00013852
0.00019782
4.20047e-05
0.000104592
0.000146124
-7.05898e-05
3.89591e-05
2.23197e-05
0.000178941
0.00013508
8.85106e-05
0.000102748
0.000125256
6.33765e-06
2.51116e-05
8.20988e-05
5.31509e-05
0.000119897
0.000161602
-1.11037e-05
0.00015061
0.00017972
-9.16779e-05
-3.29588e-05
-3.99988e-05
0.000187685
0.000135207
0.000108327
-0.000173155
0.000276285
0.000165613
-3.84382e-05
-0.000121113
5.01915e-05
-8.66072e-05
0.00015755
1.51976e-05
-7.60974e-05
-6.64492e-05
-0.000151567
-3.4168e-05
0.000301609
7.66139e-05
-4.76978e-05
6.83872e-05
0.000145776
6.34153e-05
1.53661e-05
-0.000111347
-6.43475e-05
0.000307743
0.000107896
0.000156533
0.000151515
0.00018837
-0.000153581
0.000203115
0.000314539
8.47193e-05
-5.67471e-05
3.65067e-06
4.21897e-05
-1.17709e-05
0.000185573
-6.01255e-05
9.25149e-05
-0.000105055
0.000513904
0.000181121
-4.06468e-05
0.000103039
-1.57754e-05
1.81866e-05
0.000185247
1.56637e-05
-3.3039e-05
3.95838e-05
-5.65073e-05
9.67321e-05
0.000135004
-7.10147e-05
-0.000116245
-0.000293087
-1.20511e-05
0.000196575
0.000161801
1.39736e-05
-0.000188641
5.74624e-05
1.23905e-05
6.46161e-05
4.70165e-05
1.39866e-05
-2.69531e-05
8.53456e-05
2.44343e-05
0.00018368
2.48261e-05
3.65492e-05
0.000122553
9.48426e-05
-3.01065e-05
9.04197e-05
5.78716e-05
0.000279149
0.000120272
0.000106484
-0.000217122
-4.58059e-06
6.54799e-05
-4.92646e-06
4.93011e-05
-3.99717e-05
0.00010235
0.00016881
-3.91199e-05
3.76489e-05
0.000252592
-8.82365e-05
-4.82016e-05
0.000177523
0.000274355
0.000128819
6.23012e-05
0.000135928
8.18446e-06
4.77409e-05
6.0626e-05
0.000130789
0.000107804
-8.37166e-05
9.65772e-05
-5.18438e-05
-0.000102245
0.000160798
0.000218389
0.000229294
4.46854e-05
-5.02181e-05
-2.03331e-06
-6.9323e-06
-3.22647e-05
9.88862e-05
0.000118853
0.000188593
-3.82811e-05
-0.000114186
9.30814e-05
0.000170247
0.000170585
-5.99474e-05
-0.000114894
3.01118e-05
0.000124835
0.000147016
0.000125632
0.000105981
0.000260402
0.000187682
0.000105557
7.29118e-05
-8.07224e-05
-0.000155445
0.00030499
0.000208996
3.35154e-05
0.000190698
6.13381e-06
7.672e-06
1.51945e-05
0.000192277
8.82992e-05
-0.000104467
0.00014671
-5.74149e-05
-8.37934e-06
-8.24683e-05
0.000302362
-2.56735e-05
-0.00012002
0.00013921
0.000212544
-6.37455e-06
-5.47466e-05
3.51253e-05
5.77908e-05
4.46551e-05
0.000108325
-9.9318e-05
-0.000142599
0.000304249
8.57083e-05
-0.000139695
0.000208727
-8.71237e-05
6.99724e-05
-0.00020923
3.65507e-05
0.000211047
-0.000121397
-8.78272e-05
0.000243595
0.000104743
7.16866e-05
0.000175832
-8.4169e-05
0.000117093
0.000292926
3.00534e-05
-0.000198833
0.000113081
8.61071e-05
0.000117134
0.000126007
4.07929e-05
2.43267e-05
0.000117619
-7.49785e-06
6.64263e-05
-0.0001827
-1.10206e-05
-0.000116789
-5.03098e-05
0.000113211
9.38515e-05
7.11018e-06
-1.07242e-06
-0.000114283
1.30748e-05
-9.59643e-05
-0.00018783
-1.47214e-05
0.000141969
-0.000105543
-2.11769e-05
0.000159347
-6.05979e-05
-0.000104908
-0.000191295
-3.15239e-05
2.67867e-05
-8.83363e-05
2.81917e-05
6.03007e-05
-2.11128e-05
-0.000153984
-6.70925e-06
-0.000122242
-5.28991e-05
-0.000213783
8.63421e-05
2.43846e-05
1.329e-06
-1.46832e-05
-4.76749e-05
0.000114567
-3.2409e-05
-5.61203e-06
-1.9861e-05
-3.69215e-05
-3.48245e-06
-0.000116265
-5.2555e-05
-1.27137e-06
-2.64923e-05
-0.000104853
-3.60247e-05
8.13332e-05
-0.000105781
-0.000144953
7.52913e-05
4.11213e-05
-2.63747e-05
3.98706e-05
-9.31579e-05
4.86264e-05
8.56584e-07
4.31924e-06
-0.000119127
-7.30139e-05
6.05753e-05
2.74995e-05
-0.000101008
6.03886e-05
-2.35743e-05
-0.000135273
-4.44637e-06
1.76304e-05
-0.000143069
5.91765e-05
-6.20307e-06
4.06073e-05
8.06637e-05
-7.99194e-05
3.64549e-05
-5.82082e-05
-9.32382e-06
5.90805e-05
4.19953e-05
3.69131e-05
-4.19616e-05
-5.43676e-05
3.41021e-05
-4.67335e-05
-0.0001537
-6.71796e-05
6.00317e-05
-4.6812e-05
-3.43903e-05
-8.82396e-05
4.5575e-05
-0.000176052
1.12816e-05
-0.00015407
-0.000127912
-9.47627e-05
-6.21463e-05
-4.80893e-05
5.24878e-05
-3.36813e-06
-0.000122984
4.30979e-05
-0.000154295
6.54006e-05
-0.00010901
-7.15225e-05
-5.46533e-05
0.000123682
-2.6908e-05
3.0817e-05
-0.000163153
0.000118408
-4.62126e-05
-0.000235137
-5.79348e-05
-7.17839e-05
-0.000163478
5.96761e-05
1.61466e-05
-7.24095e-05
2.98857e-05
-4.80516e-05
-4.5863e-05
-7.19617e-05
-3.38642e-05
-0.000109086
7.39482e-05
9.9036e-05
3.75013e-05
8.90734e-05
1.56956e-05
-6.02787e-05
2.84291e-05
-7.58178e-05
-6.37148e-05
0.000168836
-6.88591e-05
-0.000162257
2.27818e-05
1.59442e-06
-7.45535e-05
-0.000121428
-1.77661e-06
-0.000190662
0.00010786
0.000110056
-2.80035e-05
-1.88081e-05
-0.000179983
-8.3526e-05
9.67799e-05
8.11345e-06
6.5163e-05
0.000115118
-8.75529e-05
-5.66704e-05
4.48851e-05
-0.000137129
-9.15057e-05
-0.000117078
7.77813e-05
-6.16321e-05
-7.80416e-05
-4.38609e-05
6.10382e-05
-0.000105036
5.42323e-05
3.28156e-05
8.62763e-05
-5.37981e-05
-4.06349e-05
1.56845e-05
-4.02806e-05
-0.00021114
2.38116e-05
0.000203273
-1.50737e-05
4.13629e-05
-8.67894e-05
-6.52755e-05
3.8904e-05
-0.000102638
1.51226e-05
-4.97354e-05
-2.76994e-05
2.26523e-05
-3.52253e-05
-0.000176034
-0.000125343
-3.13101e-05
-3.65661e-07
-0.000170566
-4.75525e-05
-5.78195e-05
-0.000183783
-2.11978e-05
5.88743e-05
5.74067e-06
-3.58102e-05
-5.21913e-06
-8.06737e-05
-0.000193738
-0.000104422
-3.91724e-05
4.23505e-05
-9.05204e-05
-7.62013e-05
-8.52789e-06
0.000146161
-0.000152343
-5.96852e-05
9.52e-05
-0.000116926
9.23369e-05
-9.78985e-05
-1.47185e-05
0.000151848
2.37792e-05
-7.93701e-05
-2.82908e-05
-1.92879e-05
-2.44335e-05
-0.000142313
0.000105529
4.18108e-05
1.36646e-05
-1.15987e-05
-2.04686e-05
-2.06055e-07
-1.97634e-05
2.11211e-05
0.000109334
-0.000261437
4.28502e-05
4.00641e-05
-7.67e-05
-6.1796e-05
-1.0273e-05
-0.000159574
-8.18925e-05
7.35668e-05
-4.22967e-05
9.23162e-06
-1.98812e-05
9.94548e-06
-8.87667e-07
-5.61636e-05
-3.99555e-05
-5.35059e-05
-0.000102719
9.00062e-05
-0.000219845
-0.000120905
-5.90214e-05
4.97609e-05
-3.8076e-05
-1.36701e-05
-2.83041e-06
-8.34799e-05
1.1955e-05
-7.01746e-05
-3.17383e-05
1.34768e-05
5.83424e-05
-0.000137647
-8.99406e-05
0.000151387
1.51161e-05
-6.14149e-06
-0.000129065
3.1178e-05
0.000173843
-0.000137103
4.43443e-05
0.000100966
9.51369e-06
9.34221e-06
4.5632e-05
-4.52994e-05
0.0002318
-1.65909e-05
-9.65686e-05
0.000247102
-6.24571e-05
-9.62124e-05
4.41666e-05
-6.78144e-05
-9.39941e-05
-3.89074e-05
6.94152e-05
5.6017e-05
3.48889e-05
-0.000183194
5.50055e-05
9.55174e-05
2.66577e-05
-3.39593e-05
0.000120548
5.00388e-06
-7.52761e-05
0.000127643
-7.99589e-05
-8.11344e-05
-0.000202427
6.17071e-05
-9.95558e-05
-5.43229e-05
-5.94817e-05
-9.60127e-05
0.000116062
-0.000147444
1.14926e-05
-7.43307e-05
0.000155804
7.66395e-05
-6.99932e-05
7.37105e-05
-2.04372e-05
-8.95963e-05
9.62397e-05
-3.3834e-05
-3.49057e-05
4.17581e-05
0.000162894
3.63595e-05
8.77914e-05
-3.58357e-05
-2.20581e-05
-3.02249e-06
-1.37129e-05
3.04272e-05
5.12843e-05
-1.66399e-05
-6.64191e-05
-0.000106226
-3.41025e-05
-0.000114615
-1.21307e-05
2.69825e-05
0.000152796
4.25635e-05
-6.62485e-05
1.30309e-05
0.000125127
-3.3629e-05
0.000125025
-3.74274e-05
-0.000105816
-9.70291e-05
0.000180479
2.01128e-05
3.31966e-05
4.16909e-05
0.000125363
-0.000130524
0.000146989
3.85052e-05
-9.22036e-05
-5.5281e-06
-2.88951e-05
-7.75098e-05
-0.00016559
-6.21091e-05
8.73227e-05
0.00013541
-5.54551e-05
8.27907e-05
8.54183e-05
0.000115635
-8.62875e-05
4.55803e-05
0.000119126
0.00018409
2.40584e-06
0.000137161
5.34615e-05
5.22609e-05
5.68461e-05
0.000167474
-5.51227e-05
-1.33791e-05
-4.05211e-05
-0.000125639
6.85598e-05
-1.32683e-05
3.22419e-05
-2.875e-05
-4.65666e-05
-8.74829e-05
-7.05927e-05
7.68011e-05
-9.855e-05
4.49256e-05
-7.86614e-05
9.8209e-05
-0.000145106
-0.000182991
0.000104833
-1.31577e-05
-7.55028e-05
0.000210965
-6.38556e-05
8.74358e-05
0.000118603
-0.000142688
0.000153399
0.000188842
-0.000133898
-3.04492e-05
-8.05345e-05
-1.98928e-05
-2.80348e-05
5.00241e-05
-0.000123372
-0.000185927
2.17027e-05
2.22622e-05
-4.2201e-05
8.28356e-05
-0.000114715
-1.43955e-05
-3.40617e-05
-0.00010146
3.65763e-05
-5.14567e-05
0.000108135
-1.38625e-05
-8.48665e-05
1.70888e-05
0.000166328
4.82557e-05
-0.000137476
-0.000130724
-9.48529e-06
4.53354e-05
-0.000128978
5.08635e-05
1.61451e-05
-0.000157478
0.000116753
-5.86521e-05
-9.88669e-06
2.70254e-05
5.98142e-05
5.88679e-05
7.47682e-05
-2.03855e-05
6.78026e-05
-9.19695e-05
-5.6905e-06
-0.000144547
0.00017434
-1.03796e-05
-3.0396e-06
3.54415e-05
7.376e-05
5.4342e-05
-7.24922e-05
-4.39925e-05
-3.61345e-05
2.63092e-05
0.000149056
6.77112e-05
-0.000108175
2.75322e-07
-0.000102251
0.000191155
-4.92902e-07
2.48824e-05
1.41293e-05
-5.52984e-05
-0.000112945
1.64522e-05
5.99896e-05
-0.000104574
-2.01636e-05
-2.06165e-05
-2.06783e-05
2.71753e-05
3.29529e-05
9.95216e-05
-4.56779e-05
-3.40317e-06
3.48246e-05
5.44947e-05
4.12605e-05
0.000162435
-7.5497e-05
-7.04983e-05
-8.71019e-07
0.000148986
8.32421e-05
6.13604e-05
7.60484e-05
-1.61109e-05
-8.15617e-06
0.000102876
4.52766e-05
3.04822e-06
1.02995e-05
9.89578e-05
-6.89169e-05
3.38096e-05
7.08603e-05
-5.00827e-05
-0.00016035
2.85011e-05
-3.94697e-05
0.000187725
0.000159626
2.64988e-05
9.43411e-05
4.62709e-05
5.01296e-06
-5.5331e-06
0.00016653
-0.000108887
6.76441e-05
7.97855e-05
2.64239e-05
-3.33128e-05
-3.69874e-05
0.000154182
-0.000138618
-8.34804e-05
3.13435e-05
1.95601e-06
7.74229e-05
-8.67883e-05
-0.000106185
0.000124944
-3.27174e-06
3.75248e-05
9.61652e-05
-6.26931e-05
0.00019247
1.75089e-07
-0.000103404
-1.46426e-05
-7.02795e-05
0.000126966
-4.42556e-05
-3.12374e-05
-6.08345e-05
0.000185488
6.59458e-06
-2.88463e-05
2.55741e-06
-4.1951e-05
2.8881e-05
-7.87326e-05
-0.000245336
-4.55754e-06
1.4191e-06
-2.96714e-05
-0.000100694
6.97642e-05
9.95678e-05
2.10071e-05
9.20026e-05
0.000134083
6.70715e-06
-3.21708e-05
-1.05819e-05
0.000141856
-7.6604e-05
-3.02681e-05
-9.204e-05
-5.64926e-05
-6.9965e-05
-1.04192e-06
-3.12673e-05
-1.03472e-05
-1.91765e-05
6.47327e-06
-1.19124e-05
1.19001e-05
-0.000124219
-0.000133447
2.95362e-05
2.01779e-05
7.01149e-05
-6.8016e-05
0.000112858
-5.64293e-05
-0.000102791
3.18147e-05
9.65785e-05
0.000142974
-0.00021521
-2.51565e-05
0.000155176
-7.08783e-05
-1.83517e-06
-9.00576e-05
-6.1238e-05
3.06271e-05
-2.73805e-05
0.000121417
-7.09156e-06
-0.000136559
5.4209e-05
-8.18283e-06
-8.82489e-05
-4.20725e-06
6.04574e-05
1.07288e-06
-0.000111191
-8.29693e-05
-0.000135973
-2.61226e-05
7.20011e-05
-0.000131597
2.96028e-05
2.28289e-05
-6.37446e-05
0.00025458
-1.29701e-05
-0.000103429
-5.66973e-05
-0.000126446
-7.45151e-06
9.49734e-05
-0.000134313
2.4123e-05
-7.84067e-05
9.75837e-05
3.62004e-05
9.45163e-05
2.15506e-05
-2.0613e-05
-3.88103e-05
-0.000148647
0.000226775
9.63684e-05
-7.63235e-05
2.87784e-05
8.776e-05
-8.39325e-05
-2.85238e-05
0.000100191
-0.000145643
7.67787e-05
4.41067e-05
6.33268e-05
3.54637e-05
-4.7019e-05
6.01049e-05
0.000238689
-1.13717e-05
1.3281e-05
4.61282e-05
9.35653e-05
0.000111443
6.89395e-05
4.29254e-05
5.71758e-05
-0.000123357
-2.57513e-05
2.09776e-05
-7.5453e-05
-5.30499e-05
3.71691e-06
-4.13266e-05
0.000107548
-7.41156e-05
-8.38636e-05
3.15662e-05
-0.000155529
-4.05894e-06
8.19243e-05
7.88571e-05
8.92126e-06
-0.000158252
0.000104388
6.37077e-05
-9.68605e-05
8.47015e-06
-2.26421e-05
2.02244e-05
-5.80794e-05
-4.53768e-05
-0.000111838
-1.58466e-05
4.6669e-05
8.89634e-06
1.84822e-05
0.000207151
1.02583e-05
3.13817e-05
0.000133191
4.81964e-05
4.80296e-05
4.55587e-05
2.47984e-05
0.000182448
-2.09904e-05
-5.10681e-05
-0.00016566
-1.12362e-05
1.8183e-05
-8.31878e-05
-4.87239e-05
-7.17374e-06
6.01669e-06
-7.74843e-05
6.14962e-05
8.30096e-05
5.09628e-05
-9.22207e-06
-1.73694e-05
4.86069e-06
0.000144274
-9.19839e-05
-0.000114029
-6.5278e-05
-1.09937e-05
8.5671e-05
-5.85103e-07
-1.54505e-05
0.000174422
0.000100694
-6.32091e-05
-0.0001399
1.7643e-05
-7.06058e-05
3.54815e-05
-0.000141505
8.52001e-05
7.95145e-05
-0.000127984
1.78963e-05
4.6322e-05
0.000139067
-4.0698e-05
-0.000219237
1.18926e-05
6.91261e-05
0.000103412
3.0139e-05
1.81203e-05
-8.48222e-05
-2.77943e-05
-3.61353e-05
-4.22497e-05
2.4697e-05
-0.000103875
-0.000121247
-1.83887e-05
-5.68025e-05
-0.000118191
-0.000102746
9.25113e-05
2.27755e-05
1.13467e-05
-0.000100635
-2.48383e-05
-9.26378e-05
3.89398e-05
5.67284e-05
-3.55968e-05
7.58738e-05
0.000112991
2.82422e-05
-6.06347e-05
1.33622e-05
-4.06099e-05
-1.77706e-05
8.73166e-05
-0.000233145
-0.000133023
0.000155851
-4.31327e-05
-1.5056e-05
-9.80124e-06
-1.25055e-05
3.9553e-05
-6.42719e-05
3.49153e-06
-0.000116738
-9.34419e-06
2.47872e-05
7.48533e-05
-0.000201997
-7.66105e-05
5.21205e-05
6.21415e-05
-2.86256e-05
-7.18146e-05
-8.01743e-05
-4.28614e-05
9.60939e-06
-5.67324e-05
-7.19777e-05
-4.84587e-05
1.45552e-05
0.000141873
0.00012703
1.97347e-06
9.00917e-05
5.6143e-05
-0.000165351
3.27247e-05
-6.42668e-05
9.19827e-05
-1.09873e-06
0.000159574
-1.11897e-05
-3.98196e-05
0.000106627
2.95392e-05
0.000145453
-0.000168276
-0.000103097
-5.23591e-05
4.49643e-06
2.28093e-06
6.18853e-05
-3.49609e-05
-0.000110268
8.19857e-05
-8.72052e-05
0.000166318
-0.000134453
4.82143e-05
-8.8478e-06
-3.29863e-06
7.42727e-05
-5.85737e-05
3.09368e-05
5.62286e-07
-9.5058e-05
6.60256e-05
-2.82363e-05
-8.4132e-05
-6.04367e-05
5.385e-05
0.00025675
-0.000159862
2.50959e-05
3.67749e-05
-2.15396e-05
7.59184e-05
-7.9782e-05
0.000149189
-0.000147422
7.61392e-05
-3.72764e-05
2.41606e-05
-6.29658e-05
-3.29043e-05
1.48158e-05
-4.53114e-05
-8.09515e-05
-7.09493e-05
0.000223434
-8.89177e-05
-7.10958e-05
5.0938e-05
-0.000254145
2.66444e-05
0.000193972
1.40863e-08
6.41404e-05
-9.98836e-05
3.32807e-05
4.92502e-05
4.34157e-05
-0.000144352
7.04244e-05
-1.69722e-06
-0.000104599
-6.99663e-05
-2.57336e-06
3.46638e-06
0.000126864
-8.41729e-05
0.00011235
-7.54278e-06
7.81124e-06
-0.000189092
2.34591e-05
-8.62731e-06
-0.000121177
-2.05018e-05
-6.07851e-06
5.29638e-05
-0.000192091
-9.77204e-05
-8.92789e-07
-9.43639e-06
-0.000140862
1.41957e-05
0.000150768
-2.41942e-05
-5.04702e-05
-0.000102181
-7.32183e-05
4.00085e-05
-8.40153e-05
-2.61981e-06
7.21655e-05
-5.0161e-06
-0.000208037
-5.41108e-05
5.78302e-05
3.01225e-06
-0.000111918
6.54068e-06
-5.46846e-05
-5.08747e-05
-0.000133588
3.31155e-05
-4.74066e-06
-5.7837e-05
1.08755e-05
-4.19093e-05
-7.33044e-05
-5.93821e-05
-6.37657e-05
-7.91915e-05
0.000179463
1.76672e-05
2.41748e-05
4.90124e-05
9.09173e-05
1.5154e-05
2.98348e-05
0.000123129
-3.18813e-05
-5.28046e-05
4.12739e-05
-3.41273e-05
3.48021e-05
5.96384e-05
4.79473e-05
4.51222e-05
-8.75879e-05
-0.000116376
0.000112258
0.000105032
5.79013e-05
-5.89758e-05
-0.000101084
-4.49347e-05
1.35772e-05
-8.03013e-05
-7.24146e-05
-5.80535e-05
-8.03941e-06
8.58197e-05
4.42251e-05
1.96763e-05
6.93054e-05
-1.14448e-05
4.66332e-05
0.000114619
6.39138e-05
2.45424e-05
1.20534e-05
-3.64082e-05
0.000183935
-4.00508e-05
-9.58393e-05
-7.9737e-05
-6.42387e-05
0.000156117
-6.36358e-05
-2.02823e-05
4.17279e-06
-4.45126e-05
7.4637e-05
4.88352e-05
-3.6368e-05
-0.000136864
2.26919e-05
8.50555e-05
-0.000120948
5.87201e-05
8.04802e-05
0.000141268
-9.61536e-05
-4.6613e-05
9.01544e-06
9.69309e-06
-7.78127e-05
-0.000100692
-1.29177e-05
-5.87932e-05
0.000103821
-6.09953e-05
8.945e-05
9.45115e-05
-0.000128505
-4.94941e-05
-4.36886e-05
-7.08303e-05
-0.000152902
8.99584e-05
3.93856e-05
-3.43998e-05
8.36033e-05
-8.6269e-05
1.90388e-05
0.000105029
6.92389e-05
-0.00015256
-1.11226e-05
1.29406e-05
-3.5984e-05
-0.000109606
-9.2244e-06
4.9961e-05
-0.000108295
-2.22257e-05
0.000162947
-3.69205e-05
-8.13977e-05
7.08317e-05
7.32476e-05
-0.000151626
1.86785e-05
-8.27657e-05
0.000149286
0.000208639
-8.35496e-05
0.00020018
-0.000120059
-1.88104e-05
6.65954e-05
2.44026e-05
3.58018e-05
-2.18054e-05
2.20282e-05
9.15898e-06
-1.01894e-05
7.73014e-05
0.000114986
0.000149647
-0.00023387
-7.64148e-05
-7.88823e-05
-9.34926e-05
-2.89034e-05
-6.38495e-05
-1.02563e-05
6.80239e-05
8.09908e-05
-9.77289e-05
-4.77609e-05
2.20699e-05
-9.07248e-06
-7.34441e-05
-2.47917e-05
-5.54188e-05
-0.000158401
-0.000131674
-0.000131401
0.000161567
-3.5034e-06
0.000106311
6.27387e-05
8.72302e-05
2.11264e-05
-3.42301e-05
6.97583e-05
-0.000100716
-5.44622e-05
3.59346e-05
0.000133588
-0.000108585
-3.32654e-05
3.54219e-05
1.38135e-05
0.000106503
3.69299e-05
-6.15643e-05
1.43005e-06
3.041e-06
-1.18788e-05
4.29846e-05
-0.000108531
5.92815e-05
-7.51624e-06
-9.04319e-05
0.00014192
-2.30517e-05
6.78923e-06
3.79235e-05
-0.000152062
4.06206e-05
5.02761e-05
0.000112594
0.000128136
-0.000125756
1.05309e-05
-5.09267e-05
2.98414e-05
2.57909e-05
-8.11832e-05
0.0001153
6.59635e-05
6.76948e-05
-0.000130828
-0.00011262
0.000101887
1.27067e-06
4.53307e-05
-8.13745e-05
-5.44186e-05
1.97908e-05
0.000133827
-0.000102773
2.49991e-05
2.97737e-05
-0.000129572
0.000129192
0.000223764
-9.91621e-05
3.28551e-05
-1.16031e-05
-8.31767e-05
-9.07929e-05
0.000253356
5.35443e-05
8.99077e-05
-1.28825e-05
1.56282e-05
-1.35129e-05
-6.94774e-05
0.000116717
6.9628e-07
-0.000128637
9.77189e-05
-3.59084e-05
7.80541e-06
-3.2631e-05
2.08977e-06
-0.000176927
3.63813e-05
8.55343e-05
3.70899e-06
-5.72654e-05
-6.51206e-05
3.48394e-05
7.93124e-05
-2.30512e-05
-9.24058e-05
0.000148317
2.08896e-05
-0.000112436
-1.74926e-06
2.79105e-05
0.000137688
2.49795e-05
9.28805e-05
-7.91812e-05
-3.03593e-05
-2.91759e-05
-9.09551e-05
2.60476e-05
5.78e-05
-3.75825e-05
-1.97814e-05
0.000156924
1.18947e-05
-4.09648e-05
-4.77955e-06
6.18373e-05
3.51775e-05
-7.29746e-05
2.94535e-05
-4.75404e-05
-0.000199166
-5.49515e-05
0.000113419
1.6585e-05
0.000119959
-4.95457e-05
-5.48704e-05
-4.40066e-05
-0.00013232
-1.1068e-05
-3.26026e-05
2.95191e-05
-6.70106e-05
-5.68001e-05
4.42582e-05
0.000101565
-3.7558e-05
6.88517e-05
2.77115e-05
-1.84721e-05
6.67979e-06
2.38256e-05
-5.53908e-05
-4.54467e-05
-0.000216462
-2.11408e-05
-1.80874e-06
-2.24015e-05
-1.20928e-05
0.00010017
-2.95336e-05
-7.85103e-05
-5.64099e-05
3.54517e-05
-0.000122102
2.53569e-05
-5.15477e-05
-4.7385e-05
-0.000177943
9.91321e-05
-2.02771e-05
-9.05285e-05
-0.000160802
3.1586e-05
2.08628e-05
0.000123533
2.61997e-05
0.000129311
0.000128507
-0.000103171
0.000114865
-0.000114433
-0.000105036
8.21955e-05
2.43424e-06
-7.25684e-05
7.05036e-05
-7.86387e-05
6.73995e-05
-0.000127969
-0.000100283
-0.000118212
-7.90136e-05
0.000137716
0.000141568
9.9293e-06
7.1906e-05
0.000100329
2.52507e-05
1.47417e-06
8.824e-05
5.75717e-05
-6.24526e-05
8.51983e-05
-0.000157947
1.81701e-05
-3.88618e-06
4.89352e-05
4.22926e-05
-0.000100306
-1.68732e-06
-1.68706e-05
0.000236001
-3.15238e-05
0.000154999
8.43907e-05
-0.00017859
-0.000125187
8.14855e-05
0.000228193
9.75166e-05
5.02623e-06
-2.93705e-05
-2.13407e-05
-8.04628e-06
0.000111529
1.97906e-07
1.47175e-05
2.26219e-05
-5.05627e-05
-1.86265e-05
-9.56482e-05
1.27167e-05
-6.36932e-06
-4.83731e-05
-0.000162494
-0.000150669
-0.000123185
-0.000130301
-0.000143541
2.76943e-05
-1.19656e-05
2.78471e-05
9.66763e-05
-0.000155889
-2.90858e-05
4.30583e-05
5.522e-05
5.57833e-05
-7.19585e-05
8.21792e-05
3.18002e-05
-1.6143e-05
0.000118334
-3.50528e-05
6.98172e-05
5.22403e-05
-7.46016e-05
0.000128429
6.87909e-05
5.37094e-05
0.00016408
-6.81006e-06
5.29113e-05
6.07584e-05
0.00010507
-3.67897e-05
6.41253e-05
3.23197e-05
1.73887e-05
-6.47985e-05
3.52538e-05
-5.44684e-06
-5.82705e-05
1.32604e-05
7.89645e-06
3.92029e-06
-6.19174e-05
-0.000115363
0.000189381
-7.03011e-05
3.24491e-05
-1.29219e-05
1.29633e-05
3.50396e-05
-3.84762e-05
-0.000227834
1.54442e-05
6.68487e-05
0.000208984
-0.000137775
-0.000119738
3.3793e-06
-6.67847e-05
5.28106e-05
0.000212002
-5.04095e-05
4.5235e-05
6.23983e-05
6.92601e-06
3.33387e-05
-6.37039e-05
-0.000141853
-8.25963e-05
-2.83282e-05
6.21285e-05
7.0613e-05
-5.41143e-05
7.35442e-05
-7.91082e-05
-5.05352e-05
-4.2695e-05
-7.8611e-05
0.0001346
8.86363e-06
2.62039e-06
-3.53694e-05
-5.94269e-05
3.82785e-05
0.000139264
3.07465e-05
7.92148e-06
-4.54559e-05
9.66458e-05
-7.32995e-05
5.74475e-06
0.000131036
-4.60165e-05
6.88417e-05
1.54725e-05
-8.83696e-05
-5.20657e-05
1.93809e-05
-2.46967e-05
-0.000105775
5.53704e-05
8.18239e-05
-1.16579e-05
7.75495e-05
-7.53814e-05
1.98962e-05
-6.55052e-05
8.65606e-05
-3.5919e-05
3.04581e-05
-5.88947e-05
9.53092e-06
8.2546e-05
7.46216e-05
0.00012271
-5.17643e-05
-0.000140594
0.00019018
9.21101e-06
3.64253e-05
9.16632e-05
-3.47007e-05
4.36621e-05
3.0777e-05
-0.000150938
-8.95238e-05
0.000129958
-3.13127e-05
-7.87963e-05
6.66198e-06
-1.89338e-06
5.44359e-05
-0.00015793
6.44326e-05
4.38886e-06
3.60436e-05
-2.89264e-05
8.61718e-05
-1.9521e-05
0.000125603
-4.93162e-05
-0.000227411
-8.44891e-05
5.98042e-05
9.87015e-05
1.23557e-05
-5.95483e-05
-9.38489e-05
-3.79945e-06
9.86201e-06
2.5556e-05
-2.09048e-05
5.29063e-05
0.000165624
1.71982e-05
-1.62059e-05
8.63125e-05
9.68997e-05
0.00013841
-7.13125e-05
-9.8345e-05
-0.000187773
5.00738e-05
-0.000108282
-4.20373e-05
5.10595e-05
-1.11758e-05
-0.000140328
-4.61567e-05
9.76487e-05
1.93354e-06
0.000108967
-0.000172523
9.25374e-06
-0.000121084
-5.38622e-05
0.000162285
6.13239e-05
-2.99659e-05
7.61806e-05
0.000115906
-6.37935e-05
3.29331e-05
2.14528e-05
-4.11272e-06
5.75266e-05
2.30671e-05
2.59972e-05
-0.000109766
-5.54885e-05
-8.38353e-06
2.87625e-05
9.90407e-05
-4.36299e-05
1.81709e-05
-0.000169497
6.91157e-05
0.00012983
-9.32178e-05
-1.71876e-05
-6.78559e-05
-1.37765e-05
-2.54698e-05
4.15123e-05
2.24675e-05
-9.06689e-05
2.38942e-06
2.23628e-05
-1.01802e-05
-2.06267e-05
8.91822e-05
-1.0496e-06
-7.01811e-05
6.77125e-05
-0.000114378
0.000177749
6.0708e-05
-6.39323e-05
-4.53336e-05
-9.15691e-05
5.09657e-05
0.000144512
3.63763e-06
9.31625e-06
-4.96005e-05
-2.26529e-05
-0.000135984
6.17021e-05
-8.23091e-05
-2.61457e-05
6.40769e-05
-3.31928e-05
3.07761e-05
8.76583e-05
-0.000151892
-5.16772e-05
1.66295e-05
-6.09263e-05
-0.000119047
6.81177e-05
1.12373e-05
-9.24454e-06
-5.53958e-05
0.000118444
-2.72866e-05
-0.000138147
4.61019e-05
4.37256e-06
3.1558e-05
-5.2243e-05
-7.02605e-05
5.6606e-05
0.000132813
0.000165443
0.00012442
5.91404e-05
-9.197e-05
1.81688e-05
6.40936e-06
8.71539e-05
4.34438e-05
8.68464e-05
-6.83204e-05
2.92052e-05
-3.11069e-05
2.9095e-05
7.03544e-05
-7.91654e-05
0.000121496
1.46349e-05
-3.86849e-05
-5.5384e-05
-9.60239e-05
0.000150604
4.0951e-05
-7.54482e-05
-6.59032e-05
3.99821e-05
-3.86499e-05
0.000112857
-0.000197858
4.93142e-05
-6.38688e-05
-1.77036e-05
-2.65975e-05
-0.000101565
-1.84752e-05
-3.32675e-05
-1.24194e-05
-1.43063e-05
2.11562e-06
-3.65268e-05
2.22862e-05
-5.77043e-05
0.000197708
-0.000151495
-5.89499e-05
0.000137779
2.68316e-05
-9.80292e-05
-0.000124932
3.11434e-05
-1.91443e-05
1.89827e-06
9.94835e-05
0.00023289
7.02441e-05
-0.000154902
-8.72556e-05
0.000162866
4.77792e-06
-3.19153e-06
2.80287e-05
5.15272e-05
2.49965e-05
0.000113019
-0.00010313
6.42892e-06
-6.80701e-05
5.21253e-05
9.98091e-05
3.75336e-05
-1.25123e-05
2.78677e-05
-0.000175122
-3.9816e-05
0.000127756
5.7132e-06
-4.73834e-06
2.42182e-05
-0.000104495
-2.66102e-06
-0.000126257
-6.13289e-05
4.57136e-05
-2.78156e-05
7.88629e-05
0.000187592
0.000142461
-7.18029e-05
3.68713e-05
-7.99715e-05
-9.76787e-05
8.35125e-05
-7.6661e-05
1.73707e-05
3.88213e-05
3.76342e-05
-6.60972e-05
-4.90412e-05
-7.54837e-06
-0.000157611
7.44858e-05
0.000110231
0.000165343
-0.000116037
5.68124e-05
2.02926e-05
-4.26087e-05
4.4727e-05
-3.47781e-05
-3.89834e-05
-7.47686e-05
4.80481e-05
9.04487e-05
-5.58104e-05
-1.13857e-05
3.43553e-06
0.000201405
-5.24534e-05
6.94708e-05
-1.1354e-06
-8.97851e-05
6.21309e-06
-1.40304e-05
-5.95947e-05
3.46326e-05
0.000132579
-3.57161e-05
3.0438e-05
0.000111535
1.88511e-05
-1.74165e-05
-4.32126e-05
-1.18217e-05
-1.31922e-06
2.33713e-05
-2.01706e-05
-7.93706e-05
0.000145506
1.79218e-05
-2.63036e-05
-3.20198e-05
7.61126e-05
-8.72684e-06
-0.000197836
-0.000123453
2.00714e-05
4.62928e-05
0.000133334
-1.32769e-05
2.91376e-05
4.53091e-05
-3.26463e-05
-4.05913e-05
0.000121259
6.09392e-05
1.83126e-05
-6.41076e-05
8.71442e-05
-3.52124e-05
-2.23262e-05
2.69902e-05
-0.000210486
0.000114812
-9.10569e-05
0.00014374
1.7943e-05
1.02348e-05
-2.47061e-05
8.52565e-05
0.000171644
-1.39995e-05
-7.11631e-05
-7.28321e-05
5.84444e-05
5.29917e-05
6.56099e-05
-9.69054e-05
-1.35747e-05
0.000129801
0.000239294
-4.43283e-05
3.97891e-05
-1.95487e-05
9.60256e-05
-3.60289e-05
-0.000116182
-2.88165e-05
-4.16206e-05
0.000108467
7.31414e-06
2.43832e-05
-3.95874e-05
-9.52764e-05
0.000234467
8.88011e-05
5.22877e-05
7.4277e-05
6.16392e-05
-4.00974e-05
-8.55421e-05
-0.000195942
-9.62389e-05
-2.46791e-05
4.10397e-05
7.28224e-05
-1.15089e-05
0.000226808
0.000109816
-0.000132022
-9.46317e-06
7.56364e-05
-8.9485e-06
3.65064e-05
0.000156296
0.000201727
3.54771e-05
0.00015469
-1.79438e-05
9.59339e-05
9.93996e-05
-0.000144886
-0.000179458
-5.57557e-05
-0.000112793
4.62697e-05
9.80403e-06
-3.30922e-05
-6.04565e-05
4.9884e-06
6.31221e-05
-4.55347e-05
8.08997e-05
-4.53433e-05
-5.27859e-05
-3.14519e-06
-3.57055e-05
-9.52999e-06
-6.95038e-05
0.000112653
3.8429e-05
3.97171e-05
0.00011879
0.000150988
-1.5148e-05
-7.94134e-05
9.34885e-06
-0.000194301
9.04896e-06
0.000121528
0.000118377
1.48939e-05
-4.72451e-05
-0.000137434
9.47149e-05
7.65391e-05
2.43279e-05
-5.19562e-05
-9.07072e-05
-7.84033e-05
-0.00013318
0.000166111
0.000142645
-1.28022e-05
-6.76489e-06
6.35248e-05
-0.00016043
6.11541e-05
6.3941e-05
-4.49226e-05
-0.000135077
6.33211e-05
-1.69151e-06
7.03938e-05
-3.51341e-06
2.15787e-05
-9.54929e-05
4.56348e-08
3.92983e-06
-0.000138939
-4.66089e-05
-2.1399e-05
3.82513e-05
4.52858e-05
-5.11388e-05
-4.63857e-05
-3.81474e-05
-3.43005e-05
0.000192354
7.4185e-05
0.000221835
0.000152335
-0.000181403
7.71312e-05
-2.89916e-05
-3.52784e-05
-1.87592e-05
3.9915e-05
7.15952e-05
0.00011
-1.74604e-05
4.86121e-05
1.13738e-07
-2.96718e-05
-2.07219e-08
3.66992e-05
7.52389e-05
-6.67826e-05
-0.00012009
0.000114192
-8.33065e-05
0.000195565
-3.68104e-05
-4.92424e-05
-4.45826e-05
-6.72842e-05
-4.47984e-05
5.05159e-05
9.99531e-05
-0.000119873
-7.21816e-05
3.08804e-05
1.09174e-05
-6.43217e-05
-1.27675e-05
0.000136612
2.14319e-05
-8.01786e-05
0.000107602
-1.9524e-06
1.55653e-05
-0.000126492
-4.68823e-05
8.12868e-05
-2.08908e-05
-8.32626e-05
0.000186634
0.000197409
5.88675e-05
-0.000151033
-0.000109854
-0.000144197
-1.88316e-05
-2.33381e-05
9.07423e-05
0.000110765
8.38074e-07
0.000269337
6.3593e-06
-0.000178776
4.8205e-05
7.14092e-07
4.82146e-06
-7.97908e-05
-8.61994e-05
-1.99098e-05
-4.88923e-05
9.48089e-05
-7.22357e-07
0.000105487
-5.55773e-05
-3.23022e-05
-5.79772e-06
7.00362e-05
-2.66406e-05
5.87746e-06
2.30992e-05
-2.69382e-05
-3.54316e-05
0.000121423
-0.00019233
6.66261e-05
5.33486e-05
-3.13583e-05
-0.0001127
3.98429e-05
8.37324e-05
-0.000135248
-0.000129602
-3.15753e-05
-7.25349e-05
9.45916e-05
8.67739e-05
-0.000117806
-4.82254e-05
2.83658e-06
-0.00020758
2.65404e-05
0.000114954
2.77197e-06
-5.1522e-05
9.70059e-05
0.000128563
-5.79404e-05
4.13863e-05
8.48339e-05
-4.58405e-05
-9.13241e-05
0.000140747
2.6065e-05
-9.71523e-05
7.65489e-05
1.62688e-05
-0.000120146
-0.000104043
-4.25781e-05
0.000110974
2.52866e-05
-0.000134327
-6.40893e-05
0.000116879
5.98415e-05
-7.31115e-05
3.84439e-05
-2.63026e-05
-4.34947e-05
-9.02769e-05
2.12616e-05
-6.14581e-05
0.000181005
6.66182e-05
-0.000149219
-9.56689e-06
0.000104835
8.1027e-05
3.17445e-05
-2.58489e-05
-5.59184e-05
1.56062e-05
-4.15965e-05
4.94544e-05
-7.84522e-05
-0.0001203
1.88595e-05
3.40245e-05
-0.000102925
-9.41434e-05
-6.72652e-05
-2.04023e-05
-4.34602e-05
1.14386e-05
7.69981e-05
-0.000202481
-7.01263e-06
5.69595e-05
0.000138873
2.73716e-06
-1.34443e-05
0.000141716
-9.78189e-05
-1.75681e-05
-0.000114249
-4.51773e-06
0.000133411
-1.63737e-05
2.38846e-05
0.000114089
-1.51451e-05
5.78025e-06
-5.89262e-05
0.000106519
-0.000110708
6.32806e-05
0.000123234
-7.25344e-05
-4.84334e-06
4.08352e-05
-9.35444e-06
-0.000105669
-4.55782e-05
0.000124541
-6.00489e-05
-4.19323e-05
-0.000133914
-2.70049e-05
-2.51989e-05
5.4572e-06
-5.03531e-06
-7.69208e-05
6.50529e-06
0.000116325
0.000127374
0.000166731
-1.05558e-05
-0.000206479
0.000182523
7.48384e-05
-2.78918e-05
7.52546e-05
-4.91735e-05
-1.85496e-05
-1.14243e-05
3.40787e-05
-3.84292e-05
-7.33606e-05
8.69255e-05
6.50194e-05
-9.85953e-05
-5.78444e-06
-1.07904e-05
-5.80212e-05
-9.20605e-05
2.76716e-05
-8.15352e-05
-7.98202e-05
2.1359e-05
0.000112224
9.84112e-05
7.53235e-05
-0.000211936
0.00016368
-7.19712e-05
4.48013e-06
-3.96579e-05
5.87144e-05
3.47936e-05
3.47582e-05
2.93544e-05
4.70458e-06
5.54369e-05
-1.48639e-06
-0.000124396
-3.48384e-06
-5.07144e-05
-2.09991e-05
0.000129396
-2.92573e-05
2.09177e-05
-7.05541e-05
-0.000171928
-3.46856e-05
0.000154134
-4.65248e-05
0.000150402
-1.40693e-05
2.78042e-05
-4.51306e-05
9.39472e-06
0.000141183
3.29124e-05
-4.06129e-05
6.5838e-05
3.87592e-05
-2.93372e-05
-3.00345e-05
-5.72344e-06
6.48905e-05
-3.88516e-05
0.00013069
-4.96432e-05
7.59361e-05
-3.69509e-05
9.97796e-06
-6.46461e-05
3.62755e-05
-2.49823e-05
-3.81781e-05
1.75789e-05
-6.32813e-05
-6.81191e-05
7.20706e-05
-4.26058e-05
-4.93639e-05
-9.92035e-05
-0.000139118
9.75179e-05
-3.39865e-05
-0.000114887
-0.000112189
4.04842e-05
-2.1592e-05
-4.61726e-05
0.000109451
7.06452e-05
-4.02324e-05
6.59102e-05
-3.0046e-05
4.02904e-05
0.000171771
-0.000140592
-0.000213177
-5.79013e-05
-5.55348e-06
6.44499e-05
-0.000166967
8.324e-05
7.40779e-05
-5.58072e-06
1.56963e-05
0.000152073
4.79011e-05
2.48019e-05
-1.09859e-05
-6.54361e-05
-9.80819e-05
-5.30051e-05
-2.28531e-05
0.000155693
6.38091e-05
4.59803e-05
-3.64106e-05
-0.000112674
-4.98448e-05
1.40643e-05
6.13136e-06
-2.2118e-05
3.62452e-05
6.27337e-05
2.96995e-05
7.35477e-05
-3.0898e-05
-8.75967e-05
1.02562e-06
0.000234073
-6.07657e-05
-8.99271e-05
4.31334e-05
9.36025e-05
4.0428e-05
-5.699e-06
-7.08199e-05
-1.62122e-05
-8.73024e-05
-9.12341e-05