# vtk DataFile Version 1.0
Net Charge Density
ASCII
DATASET STRUCTURED_POINTS
DIMENSIONS 256 128 1
ORIGIN 0 0 0
SPACING 0.15625 0.15625 1
POINT_DATA 32768
SCALARS rhonet float
LOOKUP_TABLE default
-8.89963e-05
-0.00016443
6.73251e-05
0.000180924
3.86289e-06
0.000191473
3.31746e-05
-3.29298e-05
0.000211425
0.00020405
2.30236e-05
0.000279595
0.000127751
-0.000183836
-0.000216213
0.000243326
0.000142679
-9.86998e-05
-2.87006e-05
2.38952e-05
4.87675e-06
0.000126141
-8.7773e-05
5.35577e-05
9.73924e-05
2.47745e-05
7.28206e-05
7.33124e-05
0.000266094
4.45556e-05
-0.000187995
-0.000141228
0.00013852
0.000197821
4.20046e-05
0.000104592
0.000146124
-7.05898e-05
3.89591e-05
2.23195e-05
0.000178941
0.00013508
8.85107e-05
0.000102748
0.000125256
6.33823e-06
2.51116e-05
8.20984e-05
5.31512e-05
0.000119897
0.000161602
-1.11039e-05
0.00015061
0.00017972
-9.16775e-05
-3.29588e-05
-3.99986e-05
0.000187685
0.000135206
0.000108328
-0.000173156
0.000276285
0.000165613
-3.84382e-05
-0.000121113
5.01915e-05
-8.66071e-05
0.00015755
1.5198e-05
-7.60976e-05
-6.64496e-05
-0.000151567
-3.41681e-05
0.000301609
7.66141e-05
-4.76972e-05
6.83875e-05
0.000145776
6.34149e-05
1.5366e-05
-0.000111347
-6.43474e-05
0.000307742
0.000107895
0.000156533
0.000151515
0.00018837
-0.000153581
0.000203115
0.00031454
8.47189e-05
-5.67469e-05
3.65113e-06
4.21896e-05
-1.1771e-05
0.000185572
-6.01254e-05
9.2515e-05
-0.000105055
0.000513904
0.000181121
-4.06468e-05
0.000103039
-1.57752e-05
1.81862e-05
0.000185247
1.56633e-05
-3.30391e-05
3.9584e-05
-5.65068e-05
9.67323e-05
0.000135004
-7.10146e-05
-0.000116245
-0.000293087
-1.2051e-05
0.000196575
0.000161801
1.39737e-05
-0.000188641
5.74626e-05
1.23904e-05
6.46161e-05
4.70165e-05
1.39864e-05
-2.69526e-05
8.53458e-05
2.44344e-05
0.000183679
2.4826e-05
3.65495e-05
0.000122553
9.48425e-05
-3.01064e-05
9.04198e-05
5.78717e-05
0.00027915
0.000120272
0.000106484
-0.000217123
-4.58071e-06
6.54801e-05
-4.92588e-06
4.93006e-05
-3.99717e-05
0.00010235
0.00016881
-3.91202e-05
3.76491e-05
0.000252592
-8.82366e-05
-4.8202e-05
0.000177523
0.000274355
0.000128818
6.23008e-05
0.000135927
8.18446e-06
4.7741e-05
6.06258e-05
0.000130789
0.000107804
-8.37159e-05
9.65768e-05
-5.18437e-05
-0.000102245
0.000160799
0.000218389
0.000229294
4.46852e-05
-5.02177e-05
-2.03366e-06
-6.93242e-06
-3.22647e-05
9.88857e-05
0.000118853
0.000188594
-3.82811e-05
-0.000114186
9.30813e-05
0.000170248
0.000170585
-5.99473e-05
-0.000114894
3.0112e-05
0.000124835
0.000147016
0.000125632
0.000105982
0.000260402
0.000187682
0.000105557
7.29116e-05
-8.07224e-05
-0.000155445
0.00030499
0.000208996
3.35148e-05
0.000190699
6.13416e-06
7.672e-06
1.51944e-05
0.000192278
8.8299e-05
-0.000104467
0.000146709
-5.74144e-05
-8.37957e-06
-8.24684e-05
0.000302362
-2.56735e-05
-0.00012002
0.00013921
0.000212545
-6.37479e-06
-5.47467e-05
3.51248e-05
5.77907e-05
4.46549e-05
0.000108325
-9.93178e-05
-0.000142599
0.000304249
8.57081e-05
-0.000139695
0.000208727
-8.71236e-05
6.99724e-05
-0.00020923
3.65513e-05
0.000211047
-0.000121397
-8.78272e-05
0.000243595
0.000104743
7.16868e-05
0.000175832
-8.41686e-05
0.000117092
0.000292925
3.00538e-05
-0.000198832
0.000113081
8.61071e-05
0.000117134
0.000126007
4.07925e-05
2.43263e-05
0.000117619
-7.49808e-06
6.64265e-05
-0.0001827
-1.10202e-05
-0.000116789
-5.03098e-05
0.000113211
9.38514e-05
7.1103e-06
-1.073e-06
-0.000114282
1.30755e-05
-9.59643e-05
-0.000187829
-1.47214e-05
0.000141969
-0.000105542
-2.11769e-05
0.000159347
-6.05981e-05
-0.000104908
-0.000191295
-3.15243e-05
2.67865e-05
-8.83369e-05
2.81917e-05
6.03008e-05
-2.11123e-05
-0.000153984
-6.70971e-06
-0.000122242
-5.28994e-05
-0.000213783
8.63422e-05
2.43845e-05
1.329e-06
-1.46826e-05
-4.76748e-05
0.000114567
-3.24089e-05
-5.61192e-06
-1.98614e-05
-3.69208e-05
-3.4828e-06
-0.000116264
-5.2555e-05
-1.27137e-06
-2.64918e-05
-0.000104853
-3.60254e-05
8.13334e-05
-0.000105781
-0.000144953
7.52915e-05
4.11217e-05
-2.63748e-05
3.98702e-05
-9.31579e-05
4.86261e-05
8.56351e-07
4.31878e-06
-0.000119127
-7.30138e-05
6.05753e-05
2.74989e-05
-0.000101008
6.03884e-05
-2.35742e-05
-0.000135273
-4.44648e-06
1.76308e-05
-0.000143069
5.91765e-05
-6.20331e-06
4.06072e-05
8.06637e-05
-7.99198e-05
3.6455e-05
-5.82087e-05
-9.3237e-06
5.90798e-05
4.19954e-05
3.69134e-05
-4.19624e-05
-5.43675e-05
3.41018e-05
-4.67338e-05
-0.0001537
-6.71793e-05
6.00317e-05
-4.68123e-05
-3.43905e-05
-8.824e-05
4.55752e-05
-0.000176052
1.1282e-05
-0.00015407
-0.000127912
-9.47628e-05
-6.21467e-05
-4.80891e-05
5.24875e-05
-3.36766e-06
-0.000122983
4.30979e-05
-0.000154295
6.54e-05
-0.00010901
-7.15224e-05
-5.46533e-05
0.000123682
-2.6908e-05
3.0817e-05
-0.000163154
0.000118408
-4.62129e-05
-0.000235137
-5.7935e-05
-7.1784e-05
-0.000163478
5.96764e-05
1.61473e-05
-7.24092e-05
2.98854e-05
-4.80519e-05
-4.58627e-05
-7.19618e-05
-3.38638e-05
-0.000109087
7.39484e-05
9.90366e-05
3.7502e-05
8.90736e-05
1.5696e-05
-6.02792e-05
2.8429e-05
-7.58178e-05
-6.37136e-05
0.000168836
-6.88593e-05
-0.000162257
2.27815e-05
1.59489e-06
-7.45538e-05
-0.000121428
-1.77743e-06
-0.000190662
0.00010786
0.000110057
-2.80036e-05
-1.88083e-05
-0.000179984
-8.3526e-05
9.67795e-05
8.11357e-06
6.51632e-05
0.000115119
-8.75529e-05
-5.66704e-05
4.48849e-05
-0.000137129
-9.15061e-05
-0.000117078
7.7782e-05
-6.16321e-05
-7.80411e-05
-4.38609e-05
6.10384e-05
-0.000105036
5.4232e-05
3.28158e-05
8.62767e-05
-5.3798e-05
-4.06349e-05
1.56844e-05
-4.02803e-05
-0.000211141
2.38115e-05
0.000203273
-1.50742e-05
4.13628e-05
-8.67895e-05
-6.52752e-05
3.89039e-05
-0.000102638
1.51224e-05
-4.97355e-05
-2.76996e-05
2.26519e-05
-3.52248e-05
-0.000176034
-0.000125343
-3.13105e-05
-3.65428e-07
-0.000170566
-4.75527e-05
-5.78201e-05
-0.000183783
-2.11976e-05
5.88745e-05
5.74091e-06
-3.58105e-05
-5.21936e-06
-8.06737e-05
-0.000193738
-0.000104422
-3.91726e-05
4.23503e-05
-9.05202e-05
-7.62014e-05
-8.52766e-06
0.00014616
-0.000152342
-5.96847e-05
9.52003e-05
-0.000116926
9.2337e-05
-9.78984e-05
-1.47184e-05
0.000151848
2.37792e-05
-7.93701e-05
-2.82906e-05
-1.92884e-05
-2.44338e-05
-0.000142312
0.000105529
4.18114e-05
1.36641e-05
-1.15992e-05
-2.04688e-05
-2.06986e-07
-1.97635e-05
2.1121e-05
0.000109334
-0.000261438
4.28503e-05
4.00641e-05
-7.67005e-05
-6.17963e-05
-1.02733e-05
-0.000159574
-8.18924e-05
7.35668e-05
-4.22968e-05
9.23162e-06
-1.98809e-05
9.94559e-06
-8.87667e-07
-5.61633e-05
-3.99556e-05
-5.35055e-05
-0.000102719
9.00065e-05
-0.000219845
-0.000120905
-5.90218e-05
4.97609e-05
-3.80764e-05
-1.36702e-05
-2.83029e-06
-8.34805e-05
1.1955e-05
-7.01742e-05
-3.17388e-05
1.34768e-05
5.83426e-05
-0.000137647
-8.99404e-05
0.000151386
1.51154e-05
-6.14137e-06
-0.000129065
3.11777e-05
0.000173844
-0.000137103
4.43443e-05
0.000100966
9.51393e-06
9.34256e-06
4.56322e-05
-4.53e-05
0.0002318
-1.65903e-05
-9.65686e-05
0.000247102
-6.24573e-05
-9.62123e-05
4.41666e-05
-6.7814e-05
-9.39942e-05
-3.89074e-05
6.94153e-05
5.60177e-05
3.48884e-05
-0.000183194
5.50055e-05
9.55175e-05
2.66578e-05
-3.39595e-05
0.000120549
5.00353e-06
-7.52762e-05
0.000127643
-7.9959e-05
-8.11341e-05
-0.000202426
6.17071e-05
-9.95558e-05
-5.43233e-05
-5.94808e-05
-9.60126e-05
0.000116062
-0.000147445
1.14925e-05
-7.43305e-05
0.000155804
7.66397e-05
-6.99932e-05
7.37109e-05
-2.04375e-05
-8.95963e-05
9.62395e-05
-3.38345e-05
-3.49063e-05
4.17577e-05
0.000162894
3.63593e-05
8.77912e-05
-3.58352e-05
-2.20578e-05
-3.02261e-06
-1.37128e-05
3.04272e-05
5.12844e-05
-1.66401e-05
-6.64192e-05
-0.000106226
-3.41024e-05
-0.000114615
-1.21309e-05
2.69825e-05
0.000152796
4.25638e-05
-6.62484e-05
1.30311e-05
0.000125128
-3.36294e-05
0.000125025
-3.74269e-05
-0.000105816
-9.70289e-05
0.000180479
2.01126e-05
3.31972e-05
4.1691e-05
0.000125363
-0.000130524
0.000146989
3.85049e-05
-9.22033e-05
-5.5281e-06
-2.88951e-05
-7.75093e-05
-0.00016559
-6.21092e-05
8.73232e-05
0.00013541
-5.54548e-05
8.27912e-05
8.54179e-05
0.000115635
-8.62875e-05
4.55808e-05
0.000119126
0.000184091
2.40549e-06
0.000137161
5.34614e-05
5.22606e-05
5.6846e-05
0.000167474
-5.51224e-05
-1.33794e-05
-4.05209e-05
-0.00012564
6.85598e-05
-1.32682e-05
3.22419e-05
-2.87495e-05
-4.65668e-05
-8.74831e-05
-7.05924e-05
7.68013e-05
-9.85499e-05
4.49254e-05
-7.86618e-05
9.82094e-05
-0.000145106
-0.000182992
0.000104832
-1.31573e-05
-7.55034e-05
0.000210965
-6.38557e-05
8.74365e-05
0.000118602
-0.000142688
0.000153399
0.000188841
-0.000133898
-3.0449e-05
-8.05347e-05
-1.98924e-05
-2.80348e-05
5.00235e-05
-0.000123372
-0.000185927
2.17027e-05
2.22628e-05
-4.2201e-05
8.2836e-05
-0.000114716
-1.4395e-05
-3.40616e-05
-0.00010146
3.65768e-05
-5.14566e-05
0.000108135
-1.38624e-05
-8.48667e-05
1.70886e-05
0.000166328
4.82558e-05
-0.000137476
-0.000130724
-9.48564e-06
4.53353e-05
-0.000128978
5.08631e-05
1.61453e-05
-0.000157478
0.000116753
-5.86521e-05
-9.88622e-06
2.70252e-05
5.9814e-05
5.8868e-05
7.47683e-05
-2.03851e-05
6.78024e-05
-9.19694e-05
-5.69038e-06
-0.000144547
0.00017434
-1.03791e-05
-3.03937e-06
3.54417e-05
7.37594e-05
5.43424e-05
-7.24926e-05
-4.3993e-05
-3.61342e-05
2.63094e-05
0.000149056
6.77112e-05
-0.000108176
2.75089e-07
-0.000102251
0.000191155
-4.92437e-07
2.48827e-05
1.41291e-05
-5.52988e-05
-0.000112945
1.6452e-05
5.99895e-05
-0.000104574
-2.01638e-05
-2.06158e-05
-2.06785e-05
2.71748e-05
3.29523e-05
9.95215e-05
-4.5678e-05
-3.40247e-06
3.48249e-05
5.44945e-05
4.12611e-05
0.000162434
-7.54966e-05
-7.0499e-05
-8.71019e-07
0.000148986
8.3242e-05
6.13598e-05
7.60477e-05
-1.61113e-05
-8.15594e-06
0.000102876
4.52764e-05
3.04845e-06
1.02988e-05
9.89578e-05
-6.89168e-05
3.38093e-05
7.08599e-05
-5.00828e-05
-0.000160351
2.85008e-05
-3.94692e-05
0.000187725
0.000159626
2.64985e-05
9.43415e-05
4.62709e-05
5.01308e-06
-5.53334e-06
0.00016653
-0.000108887
6.76442e-05
7.97852e-05
2.64235e-05
-3.33128e-05
-3.69875e-05
0.000154182
-0.000138618
-8.34807e-05
3.13434e-05
1.95613e-06
7.74229e-05
-8.6789e-05
-0.000106185
0.000124944
-3.27209e-06
3.75245e-05
9.61653e-05
-6.26927e-05
0.00019247
1.75438e-07
-0.000103404
-1.46431e-05
-7.0279e-05
0.000126966
-4.42553e-05
-3.12374e-05
-6.08342e-05
0.000185488
6.59446e-06
-2.88455e-05
2.55741e-06
-4.19511e-05
2.88812e-05
-7.87324e-05
-0.000245335
-4.55754e-06
1.4191e-06
-2.96712e-05
-0.000100694
6.97647e-05
9.95683e-05
2.10074e-05
9.20021e-05
0.000134083
6.70739e-06
-3.21704e-05
-1.0582e-05
0.000141856
-7.66035e-05
-3.02682e-05
-9.20404e-05
-5.64925e-05
-6.99649e-05
-1.04215e-06
-3.12675e-05
-1.03468e-05
-1.9177e-05
6.47292e-06
-1.19122e-05
1.18995e-05
-0.000124219
-0.000133447
2.95367e-05
2.01784e-05
7.01146e-05
-6.80154e-05
0.000112859
-5.64294e-05
-0.000102792
3.18147e-05
9.65788e-05
0.000142974
-0.00021521
-2.51567e-05
0.000155176
-7.0878e-05
-1.83494e-06
-9.00578e-05
-6.12385e-05
3.06274e-05
-2.7381e-05
0.000121418
-7.09202e-06
-0.000136559
5.4209e-05
-8.18295e-06
-8.8249e-05
-4.20702e-06
6.04574e-05
1.07288e-06
-0.000111191
-8.2969e-05
-0.000135973
-2.61224e-05
7.2001e-05
-0.000131597
2.96024e-05
2.28288e-05
-6.37441e-05
0.00025458
-1.29697e-05
-0.000103429
-5.66975e-05
-0.000126446
-7.45105e-06
9.49729e-05
-0.000134313
2.4123e-05
-7.84069e-05
9.7584e-05
3.62004e-05
9.45166e-05
2.15506e-05
-2.06128e-05
-3.88098e-05
-0.000148647
0.000226775
9.63691e-05
-7.63232e-05
2.87781e-05
8.77602e-05
-8.39322e-05
-2.85243e-05
0.000100191
-0.000145643
7.67794e-05
4.41069e-05
6.33274e-05
3.54637e-05
-4.7019e-05
6.01048e-05
0.000238689
-1.13714e-05
1.32808e-05
4.61277e-05
9.35647e-05
0.000111443
6.89394e-05
4.29255e-05
5.71758e-05
-0.000123357
-2.57511e-05
2.09776e-05
-7.54535e-05
-5.30499e-05
3.71702e-06
-4.13263e-05
0.000107549
-7.41158e-05
-8.38639e-05
3.15658e-05
-0.00015553
-4.05905e-06
8.19243e-05
7.88571e-05
8.9216e-06
-0.000158252
0.000104387
6.37071e-05
-9.68603e-05
8.46991e-06
-2.2642e-05
2.02245e-05
-5.80798e-05
-4.53764e-05
-0.000111838
-1.58467e-05
4.66694e-05
8.89599e-06
1.84819e-05
0.000207152
1.02586e-05
3.13811e-05
0.000133191
4.81966e-05
4.80298e-05
4.55591e-05
2.4798e-05
0.000182448
-2.09904e-05
-5.10678e-05
-0.00016566
-1.12364e-05
1.81824e-05
-8.31876e-05
-4.87245e-05
-7.17363e-06
6.01658e-06
-7.74844e-05
6.14962e-05
8.30096e-05
5.09627e-05
-9.22196e-06
-1.7369e-05
4.86092e-06
0.000144273
-9.19844e-05
-0.000114029
-6.52783e-05
-1.0993e-05
8.56712e-05
-5.8522e-07
-1.54509e-05
0.000174422
0.000100693
-6.32093e-05
-0.0001399
1.76429e-05
-7.06059e-05
3.54818e-05
-0.000141505
8.51996e-05
7.95145e-05
-0.000127984
1.78961e-05
4.63219e-05
0.000139067
-4.06972e-05
-0.000219237
1.18932e-05
6.91258e-05
0.000103412
3.01392e-05
1.81205e-05
-8.48223e-05
-2.77944e-05
-3.61352e-05
-4.22499e-05
2.46973e-05
-0.000103875
-0.000121247
-1.83885e-05
-5.68025e-05
-0.000118191
-0.000102747
9.25111e-05
2.27754e-05
1.13464e-05
-0.000100635
-2.48384e-05
-9.2637e-05
3.89395e-05
5.67288e-05
-3.55962e-05
7.58738e-05
0.000112991
2.82426e-05
-6.06352e-05
1.33616e-05
-4.06096e-05
-1.77713e-05
8.73163e-05
-0.000233145
-0.000133023
0.000155851
-4.31323e-05
-1.50561e-05
-9.80124e-06
-1.25055e-05
3.95527e-05
-6.42723e-05
3.49164e-06
-0.000116738
-9.34454e-06
2.47867e-05
7.48533e-05
-0.000201997
-7.66101e-05
5.21201e-05
6.21418e-05
-2.86258e-05
-7.18149e-05
-8.01743e-05
-4.28613e-05
9.60892e-06
-5.67322e-05
-7.19775e-05
-4.84586e-05
1.45548e-05
0.000141873
0.000127031
1.97347e-06
9.00913e-05
5.61425e-05
-0.00016535
3.27247e-05
-6.42671e-05
9.19822e-05
-1.09919e-06
0.000159573
-1.11896e-05
-3.98194e-05
0.000106628
2.95392e-05
0.000145453
-0.000168276
-0.000103097
-5.23588e-05
4.49689e-06
2.28046e-06
6.18858e-05
-3.49614e-05
-0.000110268
8.19857e-05
-8.72053e-05
0.000166318
-0.000134453
4.82148e-05
-8.84745e-06
-3.2984e-06
7.4273e-05
-5.85736e-05
3.09364e-05
5.62286e-07
-9.50582e-05
6.60248e-05
-2.8236e-05
-8.41324e-05
-6.0437e-05
5.38504e-05
0.00025675
-0.000159861
2.50962e-05
3.67753e-05
-2.15388e-05
7.59182e-05
-7.97816e-05
0.000149188
-0.000147422
7.61397e-05
-3.72756e-05
2.41608e-05
-6.29659e-05
-3.29039e-05
1.48164e-05
-4.53116e-05
-8.09517e-05
-7.09493e-05
0.000223434
-8.89178e-05
-7.10959e-05
5.0938e-05
-0.000254145
2.66447e-05
0.000193972
1.42027e-08
6.41402e-05
-9.98839e-05
3.32806e-05
4.92505e-05
4.34162e-05
-0.000144352
7.04252e-05
-1.69699e-06
-0.000104599
-6.9966e-05
-2.57359e-06
3.46673e-06
0.000126863
-8.41729e-05
0.00011235
-7.54243e-06
7.81077e-06
-0.000189092
2.34594e-05
-8.62707e-06
-0.000121177
-2.05016e-05
-6.07874e-06
5.2964e-05
-0.000192091
-9.77207e-05
-8.92673e-07
-9.43698e-06
-0.000140862
1.41962e-05
0.000150768
-2.4194e-05
-5.047e-05
-0.000102181
-7.32185e-05
4.00082e-05
-8.40155e-05
-2.61981e-06
7.21652e-05
-5.01587e-06
-0.000208036
-5.41105e-05
5.78305e-05
3.01166e-06
-0.000111918
6.54103e-06
-5.46849e-05
-5.08743e-05
-0.000133588
3.3115e-05
-4.74043e-06
-5.78375e-05
1.08755e-05
-4.19095e-05
-7.33049e-05
-5.93821e-05
-6.37658e-05
-7.91918e-05
0.000179464
1.76674e-05
2.4175e-05
4.90119e-05
9.0917e-05
1.51542e-05
2.98346e-05
0.000123129
-3.18808e-05
-5.28048e-05
4.12747e-05
-3.41269e-05
3.48026e-05
5.96385e-05
4.79475e-05
4.51225e-05
-8.75879e-05
-0.000116376
0.000112258
0.000105033
5.79008e-05
-5.8976e-05
-0.000101084
-4.49349e-05
1.35778e-05
-8.03012e-05
-7.24145e-05
-5.80536e-05
-8.03918e-06
8.58199e-05
4.42257e-05
1.96769e-05
6.93054e-05
-1.14448e-05
4.66338e-05
0.00011462
6.39134e-05
2.45429e-05
1.20529e-05
-3.64085e-05
0.000183935
-4.00506e-05
-9.58396e-05
-7.9737e-05
-6.42384e-05
0.000156117
-6.36356e-05
-2.02828e-05
4.17372e-06
-4.45123e-05
7.46371e-05
4.88353e-05
-3.63676e-05
-0.000136864
2.26917e-05
8.50556e-05
-0.000120948
5.87199e-05
8.04801e-05
0.000141268
-9.61539e-05
-4.66132e-05
9.0152e-06
9.69321e-06
-7.78128e-05
-0.000100693
-1.29174e-05
-5.87938e-05
0.000103821
-6.09953e-05
8.94502e-05
9.45111e-05
-0.000128505
-4.94937e-05
-4.36888e-05
-7.08314e-05
-0.000152902
8.99585e-05
3.93861e-05
-3.43993e-05
8.36037e-05
-8.6269e-05
1.90384e-05
0.000105029
6.92384e-05
-0.00015256
-1.11223e-05
1.29399e-05
-3.59836e-05
-0.000109607
-9.22405e-06
4.99608e-05
-0.000108295
-2.2226e-05
0.000162948
-3.69203e-05
-8.13971e-05
7.08317e-05
7.32478e-05
-0.000151626
1.86788e-05
-8.27657e-05
0.000149286
0.00020864
-8.355e-05
0.000200181
-0.000120059
-1.88106e-05
6.65959e-05
2.44033e-05
3.5802e-05
-2.18063e-05
2.20287e-05
9.15898e-06
-1.01894e-05
7.73021e-05
0.000114986
0.000149647
-0.00023387
-7.64147e-05
-7.88824e-05
-9.3493e-05
-2.89035e-05
-6.38494e-05
-1.02567e-05
6.80243e-05
8.09905e-05
-9.7729e-05
-4.77614e-05
2.20705e-05
-9.07213e-06
-7.3444e-05
-2.47917e-05
-5.54186e-05
-0.000158401
-0.000131674
-0.000131402
0.000161567
-3.50294e-06
0.000106311
6.27382e-05
8.72302e-05
2.11267e-05
-3.42302e-05
6.97583e-05
-0.000100715
-5.44621e-05
3.59346e-05
0.000133589
-0.000108585
-3.32657e-05
3.54219e-05
1.38137e-05
0.000106503
3.69288e-05
-6.15644e-05
1.4297e-06
3.04077e-06
-1.18787e-05
4.29853e-05
-0.000108531
5.92811e-05
-7.51612e-06
-9.04319e-05
0.000141919
-2.30521e-05
6.78864e-06
3.79237e-05
-0.000152062
4.06214e-05
5.02769e-05
0.000112594
0.000128136
-0.000125756
1.05305e-05
-5.0927e-05
2.98405e-05
2.57911e-05
-8.11832e-05
0.0001153
6.59635e-05
6.76943e-05
-0.000130828
-0.00011262
0.000101887
1.27067e-06
4.53312e-05
-8.1375e-05
-5.44189e-05
1.97911e-05
0.000133827
-0.000102773
2.49998e-05
2.97732e-05
-0.000129572
0.000129191
0.000223764
-9.91626e-05
3.28551e-05
-1.16029e-05
-8.31762e-05
-9.07925e-05
0.000253356
5.35442e-05
8.99078e-05
-1.28829e-05
1.56277e-05
-1.3513e-05
-6.94774e-05
0.000116717
6.96629e-07
-0.000128637
9.7719e-05
-3.59088e-05
7.80541e-06
-3.2632e-05
2.09047e-06
-0.000176927
3.63812e-05
8.55348e-05
3.70911e-06
-5.72654e-05
-6.51202e-05
3.48394e-05
7.93121e-05
-2.30516e-05
-9.24056e-05
0.000148317
2.08896e-05
-0.000112436
-1.74914e-06
2.79105e-05
0.000137688
2.4979e-05
9.28803e-05
-7.9181e-05
-3.03593e-05
-2.91754e-05
-9.09553e-05
2.60479e-05
5.77993e-05
-3.75831e-05
-1.97816e-05
0.000156924
1.18946e-05
-4.09654e-05
-4.7792e-06
6.18376e-05
3.51766e-05
-7.29749e-05
2.94538e-05
-4.75405e-05
-0.000199166
-5.49511e-05
0.000113419
1.6585e-05
0.000119959
-4.95461e-05
-5.48706e-05
-4.40069e-05
-0.00013232
-1.10687e-05
-3.26023e-05
2.9519e-05
-6.70102e-05
-5.68005e-05
4.42578e-05
0.000101565
-3.75587e-05
6.88517e-05
2.77113e-05
-1.8472e-05
6.67991e-06
2.38256e-05
-5.53911e-05
-4.54466e-05
-0.000216462
-2.11407e-05
-1.8084e-06
-2.24015e-05
-1.20919e-05
0.00010017
-2.95336e-05
-7.85103e-05
-5.6409e-05
3.54521e-05
-0.000122102
2.53569e-05
-5.15478e-05
-4.73846e-05
-0.000177943
9.91322e-05
-2.0277e-05
-9.05283e-05
-0.000160802
3.1586e-05
2.08623e-05
0.000123532
2.61992e-05
0.000129311
0.000128507
-0.000103171
0.000114865
-0.000114433
-0.000105036
8.21949e-05
2.43413e-06
-7.25682e-05
7.05034e-05
-7.86389e-05
6.73991e-05
-0.00012797
-0.000100283
-0.000118212
-7.90142e-05
0.000137716
0.000141568
9.92999e-06
7.19058e-05
0.000100329
2.52506e-05
1.4744e-06
8.82401e-05
5.7572e-05
-6.24525e-05
8.51982e-05
-0.000157947
1.81692e-05
-3.88664e-06
4.89349e-05
4.22923e-05
-0.000100306
-1.68709e-06
-1.68704e-05
0.000236001
-3.15238e-05
0.000154999
8.43904e-05
-0.00017859
-0.000125187
8.14849e-05
0.000228193
9.75172e-05
5.02623e-06
-2.93703e-05
-2.13403e-05
-8.04639e-06
0.000111529
1.98255e-07
1.47175e-05
2.26222e-05
-5.05626e-05
-1.86268e-05
-9.56479e-05
1.27174e-05
-6.36978e-06
-4.8373e-05
-0.000162495
-0.000150669
-0.000123185
-0.000130301
-0.000143542
2.76943e-05
-1.19654e-05
2.78471e-05
9.66761e-05
-0.000155889
-2.90856e-05
4.30583e-05
5.522e-05
5.57838e-05
-7.19582e-05
8.21794e-05
3.18002e-05
-1.61431e-05
0.000118334
-3.50528e-05
6.98173e-05
5.22404e-05
-7.46015e-05
0.000128429
6.87911e-05
5.37089e-05
0.00016408
-6.80983e-06
5.29117e-05
6.07583e-05
0.00010507
-3.67897e-05
6.41249e-05
3.23205e-05
1.73883e-05
-6.47983e-05
3.52548e-05
-5.44684e-06
-5.82706e-05
1.32603e-05
7.89587e-06
3.9204e-06
-6.19179e-05
-0.000115363
0.000189381
-7.03009e-05
3.24494e-05
-1.29216e-05
1.29634e-05
3.50394e-05
-3.84762e-05
-0.000227834
1.54444e-05
6.68491e-05
0.000208984
-0.000137775
-0.000119737
3.37965e-06
-6.67844e-05
5.28105e-05
0.000212002
-5.04099e-05
4.52356e-05
6.23984e-05
6.92625e-06
3.33388e-05
-6.37034e-05
-0.000141852
-8.25964e-05
-2.83277e-05
6.2129e-05
7.06126e-05
-5.41139e-05
7.35443e-05
-7.91078e-05
-5.05355e-05
-4.26946e-05
-7.86108e-05
0.000134599
8.86386e-06
2.62074e-06
-3.53688e-05
-5.94272e-05
3.82785e-05
0.000139263
3.07462e-05
7.92183e-06
-4.54561e-05
9.66461e-05
-7.32995e-05
5.74533e-06
0.000131036
-4.60161e-05
6.88416e-05
1.54728e-05
-8.83696e-05
-5.20661e-05
1.93808e-05
-2.46968e-05
-0.000105775
5.53709e-05
8.18244e-05
-1.16581e-05
7.75491e-05
-7.53815e-05
1.98961e-05
-6.55052e-05
8.65611e-05
-3.59197e-05
3.04581e-05
-5.8895e-05
9.53092e-06
8.25459e-05
7.46213e-05
0.00012271
-5.17643e-05
-0.000140594
0.00019018
9.21078e-06
3.64258e-05
9.16631e-05
-3.47007e-05
4.36618e-05
3.07763e-05
-0.000150937
-8.95238e-05
0.000129958
-3.13125e-05
-7.87968e-05
6.66198e-06
-1.89315e-06
5.44363e-05
-0.000157931
6.44323e-05
4.38932e-06
3.60437e-05
-2.89264e-05
8.61718e-05
-1.95218e-05
0.000125603
-4.93157e-05
-0.000227412
-8.44891e-05
5.98044e-05
9.87018e-05
1.23552e-05
-5.95483e-05
-9.38493e-05
-3.79886e-06
9.86294e-06
2.5556e-05
-2.09047e-05
5.29066e-05
0.000165624
1.71976e-05
-1.62063e-05
8.63122e-05
9.68997e-05
0.00013841
-7.13123e-05
-9.83443e-05
-0.000187773
5.00734e-05
-0.000108282
-4.20376e-05
5.10602e-05
-1.11754e-05
-0.000140329
-4.61562e-05
9.76491e-05
1.93319e-06
0.000108967
-0.000172523
9.25316e-06
-0.000121084
-5.38623e-05
0.000162285
6.13241e-05
-2.9966e-05
7.61804e-05
0.000115906
-6.37935e-05
3.29331e-05
2.14528e-05
-4.11295e-06
5.75269e-05
2.30671e-05
2.59973e-05
-0.000109765
-5.54882e-05
-8.38342e-06
2.8762e-05
9.90406e-05
-4.363e-05
1.81708e-05
-0.000169497
6.91159e-05
0.000129829
-9.32175e-05
-1.71874e-05
-6.78555e-05
-1.37766e-05
-2.54696e-05
4.15118e-05
2.24676e-05
-9.06693e-05
2.38989e-06
2.23626e-05
-1.01802e-05
-2.06266e-05
8.91829e-05
-1.04983e-06
-7.01814e-05
6.77118e-05
-0.000114379
0.00017775
6.07077e-05
-6.39323e-05
-4.53336e-05
-9.15689e-05
5.09655e-05
0.000144512
3.63751e-06
9.31649e-06
-4.96008e-05
-2.26528e-05
-0.000135984
6.17026e-05
-8.23098e-05
-2.61457e-05
6.40769e-05
-3.31928e-05
3.07758e-05
8.76583e-05
-0.000151893
-5.16766e-05
1.66295e-05
-6.09265e-05
-0.000119047
6.81183e-05
1.12376e-05
-9.24454e-06
-5.5396e-05
0.000118444
-2.72865e-05
-0.000138146
4.61021e-05
4.37244e-06
3.15579e-05
-5.22428e-05
-7.02605e-05
5.66066e-05
0.000132814
0.000165443
0.00012442
5.91399e-05
-9.19702e-05
1.81689e-05
6.40925e-06
8.71533e-05
4.34435e-05
8.68463e-05
-6.83202e-05
2.9205e-05
-3.11068e-05
2.9095e-05
7.03554e-05
-7.91656e-05
0.000121496
1.46348e-05
-3.86853e-05
-5.53842e-05
-9.60241e-05
0.000150604
4.095e-05
-7.5448e-05
-6.59028e-05
3.99821e-05
-3.86498e-05
0.000112857
-0.000197858
4.93145e-05
-6.38689e-05
-1.77039e-05
-2.65976e-05
-0.000101566
-1.84749e-05
-3.32673e-05
-1.24194e-05
-1.4306e-05
2.11503e-06
-3.65268e-05
2.22864e-05
-5.7704e-05
0.000197708
-0.000151495
-5.89502e-05
0.000137778
2.68319e-05
-9.80292e-05
-0.000124932
3.11434e-05
-1.91436e-05
1.89792e-06
9.94829e-05
0.00023289
7.02442e-05
-0.000154902
-8.72556e-05
0.000162866
4.77838e-06
-3.19083e-06
2.80279e-05
5.15269e-05
2.49967e-05
0.000113019
-0.00010313
6.42857e-06
-6.807e-05
5.21253e-05
9.98093e-05
3.75335e-05
-1.25123e-05
2.78677e-05
-0.000175122
-3.98161e-05
0.000127756
5.71366e-06
-4.73834e-06
2.42178e-05
-0.000104495
-2.66114e-06
-0.000126257
-6.13293e-05
4.57141e-05
-2.78158e-05
7.88629e-05
0.000187592
0.000142461
-7.18029e-05
3.68711e-05
-7.9971e-05
-9.76785e-05
8.35124e-05
-7.6661e-05
1.73704e-05
3.88211e-05
3.76343e-05
-6.60974e-05
-4.90417e-05
-7.5486e-06
-0.000157611
7.44847e-05
0.000110231
0.000165343
-0.000116037
5.68121e-05
2.02926e-05
-4.26089e-05
4.47268e-05
-3.4778e-05
-3.89836e-05
-7.47684e-05
4.80481e-05
9.04484e-05
-5.58107e-05
-1.13857e-05
3.43565e-06
0.000201405
-5.24535e-05
6.94711e-05
-1.13621e-06
-8.97851e-05
6.21274e-06
-1.40305e-05
-5.95943e-05
3.46325e-05
0.000132579
-3.57159e-05
3.04384e-05
0.000111536
1.88516e-05
-1.74164e-05
-4.32122e-05
-1.18213e-05
-1.31887e-06
2.33713e-05
-2.01708e-05
-7.93706e-05
0.000145507
1.79219e-05
-2.63033e-05
-3.20199e-05
7.61122e-05
-8.72649e-06
-0.000197836
-0.000123454
2.00719e-05
4.62924e-05
0.000133335
-1.32768e-05
2.91379e-05
4.53094e-05
-3.2646e-05
-4.05912e-05
0.00012126
6.09392e-05
1.83129e-05
-6.41071e-05
8.71442e-05
-3.52121e-05
-2.23265e-05
2.69903e-05
-0.000210485
0.000114811
-9.10572e-05
0.00014374
1.79426e-05
1.02348e-05
-2.47061e-05
8.52563e-05
0.000171644
-1.39988e-05
-7.11629e-05
-7.28322e-05
5.84442e-05
5.2992e-05
6.56093e-05
-9.69054e-05
-1.35751e-05
0.000129801
0.000239294
-4.43284e-05
3.97887e-05
-1.95487e-05
9.60252e-05
-3.60287e-05
-0.000116182
-2.88161e-05
-4.16205e-05
0.000108468
7.31391e-06
2.43826e-05
-3.95869e-05
-9.52767e-05
0.000234467
8.88015e-05
5.22877e-05
7.42769e-05
6.16394e-05
-4.00973e-05
-8.55421e-05
-0.000195942
-9.62391e-05
-2.46789e-05
4.10399e-05
7.2823e-05
-1.15092e-05
0.000226808
0.000109816
-0.000132022
-9.46352e-06
7.5636e-05
-8.94885e-06
3.65067e-05
0.000156297
0.000201727
3.54772e-05
0.00015469
-1.79445e-05
9.59337e-05
9.93995e-05
-0.000144887
-0.000179458
-5.5755e-05
-0.000112793
4.62695e-05
9.8038e-06
-3.3092e-05
-6.04565e-05
4.98828e-06
6.3122e-05
-4.55347e-05
8.08993e-05
-4.53432e-05
-5.27855e-05
-3.14531e-06
-3.57055e-05
-9.52999e-06
-6.95039e-05
0.000112653
3.84293e-05
3.97172e-05
0.000118791
0.000150988
-1.5148e-05
-7.94143e-05
9.34943e-06
-0.000194301
9.04885e-06
0.000121529
0.000118377
1.48937e-05
-4.72446e-05
-0.000137434
9.47142e-05
7.65389e-05
2.43281e-05
-5.1956e-05
-9.07071e-05
-7.8403e-05
-0.00013318
0.000166111
0.000142645
-1.2802e-05
-6.76443e-06
6.35246e-05
-0.00016043
6.11541e-05
6.39411e-05
-4.49236e-05
-0.000135078
6.33209e-05
-1.69151e-06
7.03945e-05
-3.51341e-06
2.15793e-05
-9.54933e-05
4.61005e-08
3.92995e-06
-0.000138938
-4.66086e-05
-2.13988e-05
3.82513e-05
4.52858e-05
-5.1139e-05
-4.63859e-05
-3.8147e-05
-3.43003e-05
0.000192355
7.41847e-05
0.000221835
0.000152335
-0.000181402
7.71314e-05
-2.89916e-05
-3.52781e-05
-1.87599e-05
3.99153e-05
7.15952e-05
0.00011
-1.74601e-05
4.8612e-05
1.13389e-07
-2.96719e-05
-2.04891e-08
3.66993e-05
7.5239e-05
-6.67827e-05
-0.00012009
0.000114192
-8.33061e-05
0.000195565
-3.68102e-05
-4.92427e-05
-4.45823e-05
-6.72844e-05
-4.47987e-05
5.05161e-05
9.99531e-05
-0.000119873
-7.21817e-05
3.08802e-05
1.09175e-05
-6.43219e-05
-1.27676e-05
0.000136612
2.14314e-05
-8.01785e-05
0.000107603
-1.95263e-06
1.5565e-05
-0.000126493
-4.68825e-05
8.12869e-05
-2.08913e-05
-8.32626e-05
0.000186634
0.000197409
5.8867e-05
-0.000151033
-0.000109855
-0.000144197
-1.8831e-05
-2.33378e-05
9.07421e-05
0.000110765
8.3854e-07
0.000269336
6.35884e-06
-0.000178776
4.82051e-05
7.13859e-07
4.82122e-06
-7.97911e-05
-8.61994e-05
-1.991e-05
-4.88925e-05
9.48097e-05
-7.22823e-07
0.000105487
-5.55774e-05
-3.23021e-05
-5.79783e-06
7.0036e-05
-2.66405e-05
5.87793e-06
2.30997e-05
-2.6938e-05
-3.54312e-05
0.000121423
-0.00019233
6.66257e-05
5.33485e-05
-3.13586e-05
-0.000112701
3.9842e-05
8.37327e-05
-0.000135247
-0.000129602
-3.15756e-05
-7.25349e-05
9.45915e-05
8.67738e-05
-0.000117806
-4.82254e-05
2.83658e-06
-0.000207579
2.65402e-05
0.000114953
2.77208e-06
-5.15219e-05
9.70057e-05
0.000128563
-5.79406e-05
4.13863e-05
8.48332e-05
-4.58402e-05
-9.13239e-05
0.000140747
2.60649e-05
-9.71522e-05
7.65489e-05
1.62687e-05
-0.000120146
-0.000104043
-4.25782e-05
0.000110974
2.52866e-05
-0.000134327
-6.40897e-05
0.000116879
5.98414e-05
-7.31113e-05
3.84439e-05
-2.63028e-05
-4.34949e-05
-9.02762e-05
2.12609e-05
-6.14579e-05
0.000181005
6.66182e-05
-0.00014922
-9.56701e-06
0.000104835
8.10272e-05
3.17442e-05
-2.58496e-05
-5.59185e-05
1.56061e-05
-4.15966e-05
4.94545e-05
-7.84519e-05
-0.0001203
1.88593e-05
3.40241e-05
-0.000102925
-9.41434e-05
-6.72649e-05
-2.04027e-05
-4.34598e-05
1.14389e-05
7.69981e-05
-0.000202481
-7.01263e-06
5.69588e-05
0.000138873
2.73646e-06
-1.34447e-05
0.000141716
-9.78187e-05
-1.7568e-05
-0.000114249
-4.5182e-06
0.000133411
-1.6374e-05
2.38847e-05
0.00011409
-1.51454e-05
5.7806e-06
-5.89263e-05
0.000106519
-0.000110708
6.32813e-05
0.000123234
-7.25345e-05
-4.84346e-06
4.08349e-05
-9.35432e-06
-0.00010567
-4.55786e-05
0.000124541
-6.00487e-05
-4.19326e-05
-0.000133914
-2.70044e-05
-2.51989e-05
5.45732e-06
-5.03566e-06
-7.69207e-05
6.50459e-06
0.000116326
0.000127374
0.000166731
-1.05556e-05
-0.000206479
0.000182522
7.48386e-05
-2.7891e-05
7.52545e-05
-4.91738e-05
-1.85496e-05
-1.14243e-05
3.40788e-05
-3.84288e-05
-7.33603e-05
8.69257e-05
6.50194e-05
-9.8595e-05
-5.78503e-06
-1.07907e-05
-5.80212e-05
-9.20607e-05
2.76718e-05
-8.15352e-05
-7.98198e-05
2.13591e-05
0.000112224
9.84112e-05
7.53237e-05
-0.000211937
0.00016368
-7.19711e-05
4.48059e-06
-3.9658e-05
5.87145e-05
3.47935e-05
3.47578e-05
2.93542e-05
4.70493e-06
5.54372e-05
-1.48639e-06
-0.000124396
-3.48338e-06
-5.07142e-05
-2.09996e-05
0.000129397
-2.92567e-05
2.0918e-05
-7.05541e-05
-0.000171928
-3.46856e-05
0.000154134
-4.65245e-05
0.000150401
-1.40689e-05
2.78038e-05
-4.51305e-05
9.39495e-06
0.000141183
3.29124e-05
-4.06132e-05
6.58382e-05
3.87593e-05
-2.93372e-05
-3.00345e-05
-5.72333e-06
6.48905e-05
-3.88515e-05
0.000130689
-4.96433e-05
7.5936e-05
-3.69506e-05
9.97749e-06
-6.46459e-05
3.62755e-05
-2.49821e-05
-3.81782e-05
1.75788e-05
-6.32816e-05
-6.81196e-05
7.20709e-05
-4.26057e-05
-4.93641e-05
-9.92041e-05
-0.000139118
9.75179e-05
-3.39864e-05
-0.000114887
-0.000112189
4.04847e-05
-2.15925e-05
-4.61725e-05
0.000109451
7.06454e-05
-4.02323e-05
6.59099e-05
-3.00459e-05
4.02904e-05
0.000171771
-0.000140593
-0.000213177
-5.79015e-05
-5.55324e-06
6.44499e-05
-0.000166967
8.324e-05
7.40779e-05
-5.58048e-06
1.56963e-05
0.000152073
4.79018e-05
2.48021e-05
-1.09856e-05
-6.54361e-05
-9.80817e-05
-5.30055e-05
-2.28529e-05
0.000155694
6.38093e-05
4.59799e-05
-3.64103e-05
-0.000112674
-4.98447e-05
1.40643e-05
6.13136e-06
-2.21179e-05
3.62447e-05
6.2734e-05
2.96991e-05
7.35476e-05
-3.08983e-05
-8.75972e-05
1.02562e-06
0.000234073
-6.07658e-05
-8.99272e-05
4.3133e-05
9.36026e-05
4.04279e-05
-5.69923e-06
-7.08203e-05
-1.62121e-05
-8.73024e-05
-9.12341e-05