# vtk DataFile Version 1.0
Net Charge Density
ASCII
DATASET STRUCTURED_POINTS
DIMENSIONS 256 128 1
ORIGIN 0 0 0
SPACING 0.15625 0.15625 1
POINT_DATA 32768
SCALARS rhonet float
LOOKUP_TABLE default
-3.89654e-06
-9.51274e-05
0.000144792
9.63219e-05
3.56846e-05
0.000120451
-0.000118445
9.18577e-05
0.000154216
2.28992e-05
-3.75607e-05
0.000108726
0.00010382
7.94453e-05
0.000109346
4.99606e-05
8.77433e-05
0.000140236
4.05877e-05
-6.79099e-05
-6.4068e-06
0.000141859
0.000144767
4.77823e-05
3.72682e-05
2.07424e-05
7.74218e-05
9.0589e-05
-1.35215e-05
-7.27423e-05
5.23026e-05
3.97232e-05
4.36689e-05
6.90084e-05
1.24417e-05
0.000171713
1.68078e-05
7.28725e-05
7.73575e-05
-5.53043e-06
2.29322e-05
6.83242e-06
0.000136404
9.39813e-05
2.09394e-05
1.86831e-05
-3.16134e-05
6.95547e-05
0.000116214
7.88724e-05
-1.20078e-05
2.49782e-05
8.34424e-05
0.000148995
3.55951e-05
1.75036e-05
0.000151011
-5.17473e-05
5.67816e-06
7.16953e-05
5.02793e-05
6.06019e-05
7.16769e-06
8.01799e-05
8.22493e-05
-8.03833e-05
4.41819e-05
0.000136175
4.09954e-05
4.82837e-05
7.92339e-05
3.67111e-05
-2.69157e-05
4.96679e-05
-1.14669e-07
5.11558e-05
4.20859e-05
-3.8308e-05
9.21619e-05
0.000106615
8.71841e-05
2.54083e-05
7.49612e-05
0.000101105
4.54684e-05
-4.48001e-06
-1.6691e-05
6.70488e-05
0.000119669
-2.34882e-05
9.00027e-05
-1.47951e-05
-3.90529e-05
-6.21472e-06
-8.99178e-05
5.22721e-05
0.000157961
2.4097e-05
9.16882e-05
-2.49445e-05
0.000157723
9.09187e-05
-3.16929e-06
9.47258e-05
3.90381e-05
0.000130971
-2.58326e-07
-6.85494e-05
2.66265e-06
7.4e-05
0.00013342
5.79277e-05
2.02982e-05
3.31159e-05
8.04213e-05
4.36592e-05
1.2266e-05
7.49688e-05
5.096e-05
4.32276e-05
-3.98807e-05
-3.45631e-05
4.04445e-05
2.44892e-05
0.00011572
6.60877e-05
1.82551e-05
8.13092e-05
1.99641e-05
-1.88097e-05
0.000119796
9.26158e-05
-2.24402e-06
3.77488e-05
2.03245e-05
6.79656e-06
4.46093e-05
-3.19165e-05
4.68965e-05
-1.1503e-05
-4.98407e-05
2.32951e-05
2.09622e-05
0.000160761
9.88222e-05
2.06358e-06
0.000137836
1.15243e-05
-3.11242e-05
0.000132418
1.78273e-05
2.91318e-05
0.000108428
-8.34535e-06
3.45046e-05
4.32305e-05
5.74626e-06
3.4271e-05
-5.27664e-06
1.75429e-05
7.67781e-05
2.50085e-05
0.000112709
-2.20696e-05
3.25853e-05
2.5523e-05
5.84617e-05
-6.12723e-05
0.000105448
0.000137295
2.50291e-05
4.32238e-05
7.45822e-05
0.000111579
-2.02684e-05
-8.13347e-06
8.72933e-05
-8.2322e-05
1.15577e-05
3.31802e-05
8.8769e-05
-7.05997e-05
-3.1811e-05
5.65394e-06
1.0499e-05
7.98533e-05
4.14201e-05
7.20927e-05
0.000102554
7.46853e-05
2.48839e-05
0.000198125
8.16119e-05
-6.56995e-05
6.24199e-05
0.000201229
4.75222e-05
8.32754e-05
7.86667e-05
-1.63089e-05
5.95986e-05
0.00014917
4.3901e-05
3.83351e-05
-1.00754e-05
6.97708e-05
-5.98882e-05
5.34235e-05
6.86802e-05
8.57902e-05
6.81024e-05
0.000137439
0.000106097
-2.40526e-05
0.000111081
-0.000131281
0.000102691
9.90945e-05
-5.28723e-05
-3.79215e-05
8.69742e-05
0.000114877
0.000176992
3.40517e-05
7.95295e-05
5.67446e-05
-3.69134e-05
-1.51402e-05
8.69038e-05
6.8607e-05
6.22799e-06
4.16548e-05
2.36379e-05
2.607e-05
0.000121307
-3.55702e-05
-2.05771e-05
2.7501e-05
5.94513e-05
8.97888e-06
1.8499e-05
8.66941e-05
-5.82668e-05
-3.07104e-07
2.65902e-05
-1.44092e-05
-2.21955e-05
-3.95462e-05
0.000128655
-4.29619e-06
2.10484e-05
-3.85131e-05
0.000102294
2.1438e-05
2.40527e-05
4.18613e-05
-0.0001049
2.4705e-05
-6.30282e-05
-2.51189e-05
-2.38868e-05
5.12255e-05
-2.60447e-05
-7.57636e-05
4.9893e-05
-6.6046e-05
-4.29002e-05
2.33413e-05
-5.99084e-05
-8.02728e-05
3.00189e-06
-4.24266e-05
4.66208e-06
1.0891e-05
-2.15757e-05
-4.06033e-06
-5.82077e-05
-6.74946e-05
-0.000106138
-1.79204e-05
-2.00451e-05
-5.72714e-05
-2.52761e-05
7.73068e-06
-3.07411e-05
-8.53867e-05
-3.5389e-05
-8.36118e-06
2.74419e-05
-7.95681e-05
-6.67478e-05
2.31334e-05
-0.000103178
-3.3788e-05
1.98344e-05
-8.2033e-05
-5.15862e-05
-4.38415e-05
8.67248e-06
3.55993e-05
-2.47123e-05
4.87419e-06
-0.000112385
-3.15174e-05
3.88798e-05
-3.39408e-05
-6.5613e-05
-4.1193e-05
-3.17376e-05
2.98236e-05
-2.85315e-05
-3.54571e-05
-2.34868e-05
-0.00011611
1.48104e-05
-3.37932e-05
4.56311e-05
-5.12691e-05
-5.72854e-05
-3.73458e-05
-3.01473e-05
-6.05672e-05
-1.00291e-05
-7.96346e-05
-0.000109192
1.21044e-05
-4.39815e-05
9.01695e-06
-1.84359e-05
1.7242e-05
-5.13539e-05
-1.04334e-05
4.76099e-05
-2.54943e-05
5.74091e-05
2.16532e-07
-3.24124e-05
-5.04442e-05
-8.22557e-05
2.84832e-05
2.44662e-05
-6.16945e-05
-0.000158637
-4.16978e-05
-6.58911e-08
-1.69141e-05
8.77364e-06
5.33117e-05
3.15602e-06
-1.07939e-05
2.47138e-05
-5.965e-06
3.43232e-05
-2.73113e-05
-6.84685e-06
-1.89501e-06
-4.36434e-05
-0.000106617
-3.96518e-05
-2.96775e-05
-3.556e-05
1.6422e-05
-5.91248e-05
-4.27186e-05
-1.06753e-06
-5.99923e-06
5.43522e-05
-3.54241e-05
-7.13802e-05
-7.13193e-05
4.017e-05
1.15474e-05
-5.2352e-05
-1.11546e-05
9.64524e-06
3.18991e-05
-8.57748e-05
1.39618e-05
-6.13794e-05
-7.74162e-06
-3.48634e-05
-1.67096e-05
-4.55657e-05
-6.96027e-05
1.7025e-05
-4.88108e-05
-2.07967e-05
1.59814e-05
-1.05533e-05
-2.35445e-05
-1.24411e-05
-3.31046e-05
-4.60126e-05
-1.33587e-05
-4.22456e-05
-8.32311e-06
-5.94475e-05
-7.82579e-05
8.69716e-06
-2.01981e-06
-8.3825e-05
1.05491e-05
-3.22353e-05
-4.36761e-05
-0.000117681
-8.72533e-06
-3.99582e-05
-3.83077e-05
-7.16745e-05
9.37108e-06
3.00054e-05
-1.7041e-05
-2.39994e-05
-1.85566e-06
-5.11224e-05
-2.02563e-05
-8.13492e-05
-6.40948e-05
3.62427e-05
-8.02712e-05
-7.56315e-06
2.37456e-05
2.21169e-05
-5.27812e-05
-2.42516e-06
3.60706e-05
-9.46563e-05
1.02372e-05
-2.2148e-05
3.97033e-05
-4.13512e-05
-2.55482e-05
-5.70039e-06
3.04058e-05
-6.907e-05
-4.77678e-05
3.67505e-05
-4.79631e-06
2.05846e-06
-4.86562e-05
-0.000107547
-6.60246e-05
-2.66e-05
-2.24799e-05
-9.32999e-06
-1.88575e-05
-0.000101449
6.32298e-06
3.69595e-05
4.6104e-06
-1.0849e-05
-2.36547e-05
-8.50841e-05
-3.90909e-05
4.81101e-05
-6.9777e-06
-7.51881e-05
-6.46281e-05
-4.37897e-05
3.07559e-05
-5.53508e-05
1.8304e-06
-5.12167e-05
9.71669e-05
1.17975e-05
-4.14063e-05
-5.2241e-05
-4.83999e-05
-4.73994e-05
3.21255e-05
-3.50833e-05
-7.29871e-05
1.69815e-06
-2.53877e-05
-1.98883e-05
4.50574e-06
-1.732e-05
7.05677e-05
5.70894e-05
-6.70666e-05
-3.48982e-05
-2.73385e-05
-7.02047e-05
-2.06066e-05
2.42674e-05
8.58861e-05
-8.70345e-05
6.93463e-06
-4.34535e-05
-3.62698e-05
6.90322e-05
3.75883e-05
-6.27581e-05
-4.99131e-06
2.55419e-05
-5.11215e-05
2.2625e-05
-1.34828e-05
-4.8021e-05
-1.98237e-05
3.05509e-06
3.73245e-05
3.42679e-05
-1.23484e-05
-2.31678e-05
-0.000132199
-1.67056e-07
-7.60634e-06
5.12578e-05
-7.35302e-06
-7.36321e-05
5.0168e-06
-3.30423e-05
-1.9914e-06
5.00254e-05
-7.79761e-06
-2.33892e-05
-8.48016e-06
1.05391e-06
-1.9229e-05
7.13235e-05
-5.15231e-05
7.82299e-06
3.11628e-05
6.53439e-05
-4.67903e-05
-2.90641e-05
-1.14907e-05
-2.49571e-05
-9.34284e-05
-2.04819e-05
3.51591e-05
4.88632e-05
3.64076e-05
-1.64527e-05
3.77698e-05
6.14581e-05
-4.75247e-05
4.4845e-05
4.40083e-05
9.82278e-06
-5.10868e-05
1.23074e-05
2.34441e-05
7.04301e-05
4.96684e-05
-3.57148e-05
2.25289e-05
5.27373e-06
-2.51165e-05
4.8009e-05
3.40394e-05
2.1163e-05
-2.892e-05
-7.34263e-05
2.16755e-05
3.48729e-05
1.42108e-06
-4.63354e-05
1.81736e-06
-1.65711e-05
5.22442e-05
1.9271e-05
-4.25106e-05
-9.05943e-05
6.88422e-06
2.94284e-05
9.43267e-06
3.90759e-05
-4.01757e-05
2.79769e-05
-3.307e-05
9.02753e-05
1.87056e-05
2.19359e-05
-2.38945e-05
3.89217e-05
7.95067e-05
-1.42981e-06
-1.07866e-05
-4.31228e-05
-5.63426e-05
3.6556e-05
5.69143e-06
-2.97664e-05
3.18506e-05
-3.75105e-05
-1.97686e-05
6.36958e-05
5.06416e-05
-4.80588e-05
-4.18769e-05
-9.31229e-06
-2.63562e-05
-1.33656e-05
5.09447e-05
7.4107e-05
-1.38803e-05
-5.52132e-05
-6.02389e-05
2.25466e-05
4.0165e-05
-3.56472e-05
4.60861e-05
6.0403e-05
1.00419e-05
-2.72852e-05
-6.84023e-05
1.03847e-05
-3.90668e-05
-6.67314e-05
1.89329e-05
-3.86653e-05
-7.26087e-05
1.55345e-05
3.44659e-05
-9.18168e-06
-2.52384e-05
3.49989e-05
6.71942e-05
-7.81473e-06
-2.34847e-05
1.90872e-05
-3.45564e-05
-3.24694e-06
3.17623e-05
-4.33621e-05
-4.44569e-05
-1.29164e-05
6.19071e-05
-1.54721e-05
-1.92425e-05
-9.33767e-07
1.07804e-05
-2.67865e-05
6.43284e-05
6.28643e-07
3.16113e-05
-3.45439e-05
-2.02109e-05
3.29809e-05
-8.92929e-06
-5.33778e-05
-6.5838e-05
-1.97738e-05
2.38349e-06
3.65477e-05
8.36782e-06
-1.87813e-06
1.4829e-05
-2.75737e-05
4.24775e-05
2.79525e-05
9.69106e-05
6.65828e-05
1.94263e-05
1.4567e-05
-1.36637e-05
5.90174e-05
5.77694e-05
-3.53307e-05
8.65561e-05
-1.88483e-05
-2.10219e-05
-5.39364e-05
1.12342e-05
-1.22989e-05
7.03163e-05
-1.07868e-05
6.14929e-06
5.77931e-05
3.47513e-05
-3.56392e-05
-5.85581e-06
4.3827e-05
2.99958e-05
1.48882e-05
3.0942e-06
-6.2997e-05
1.44138e-05
-9.34462e-05
4.10881e-05
-3.34161e-05
-7.29717e-05
6.78631e-06
-4.31378e-05
3.26064e-05
-5.40693e-05
-3.51891e-05
-7.38096e-06
-3.46785e-05
7.78108e-06
5.2859e-05
1.66986e-05
-1.61515e-06
7.61891e-05
-2.89583e-06
5.27902e-05
3.30987e-05
2.69054e-05
3.20115e-05
-4.14012e-05
-7.91213e-05
6.70378e-06
-3.7106e-05
3.38536e-07
3.12878e-05
2.55895e-05
4.6243e-05
-7.34441e-06
3.85575e-05
-1.8248e-05
8.60399e-05
-3.51763e-05
-2.42107e-05
-2.44786e-05
3.96876e-05
3.96364e-05
-5.59597e-06
-1.59817e-05
5.26491e-05
-3.12823e-05
-9.51311e-06
1.32089e-05
3.03081e-05
4.01441e-05
-6.213e-05
6.55768e-06
-4.02802e-05
7.68164e-05
-2.30569e-05
2.42703e-06
-2.36239e-05
-7.65687e-06
1.05589e-06
-7.58459e-05
1.8905e-05
4.24923e-05
2.73308e-06
-4.68807e-05
-0.000111356
2.32974e-05
1.92825e-05
1.66951e-06
4.11416e-05
-1.26259e-05
3.11411e-06
-2.15396e-05
-7.41896e-05
3.57798e-05
1.81659e-05
-4.43209e-05
1.38062e-05
2.49421e-05
-1.40065e-05
-5.45265e-05
-1.59669e-05
4.8483e-05
-4.49922e-06
-0.000139602
5.79737e-05
3.08058e-05
0.000100899
-3.72755e-05
3.8272e-05
1.96727e-05
-2.19462e-05
-3.16998e-05
-3.15025e-05
5.79796e-05
8.84754e-05
-9.06736e-06
-5.99886e-05
9.21858e-06
8.46398e-06
-1.87429e-08
-2.07848e-05
-3.90375e-05
0.000130275
-3.43213e-05
-4.70519e-05
5.37112e-05
-2.79653e-06
2.82261e-06
-3.7919e-05
-6.0541e-05
4.75423e-05
4.84355e-05
-1.75372e-05
3.74631e-05
-5.19104e-05
4.18175e-05
3.39496e-05
-6.99725e-05
2.7366e-05
3.8806e-05
1.67808e-05
-5.26787e-05
6.28685e-05
-2.19624e-05
-4.31008e-05
-7.40355e-06
-2.66792e-05
4.25464e-05
3.6502e-06
2.75727e-05
-4.73876e-05
-6.43707e-06
3.03094e-05
-2.263e-05
-8.19336e-05
-4.95821e-05
1.36236e-05
3.36368e-05
4.53521e-05
-3.78166e-05
6.72047e-05
-2.02061e-05
-6.23036e-05
4.74699e-05
4.62761e-05
1.24054e-05
3.82884e-05
2.15032e-05
5.87145e-05
-6.50003e-05
-4.25663e-05
-1.34121e-05
4.39062e-05
4.78703e-05
-2.23207e-05
-6.05175e-05
1.98302e-06
-2.43739e-06
-3.00116e-05
1.48918e-05
2.92046e-05
7.28867e-05
7.06636e-05
-3.58255e-05
-0.000140627
2.58457e-05
1.20327e-06
-2.88258e-05
-4.697e-05
5.72428e-05
3.12586e-05
1.75566e-05
-0.000107817
-1.5847e-05
1.13324e-05
3.99519e-05
3.28139e-05
-4.30103e-05
3.20364e-05
3.74886e-05
-3.91934e-05
2.83314e-05
3.71943e-05
-1.37142e-05
3.56366e-05
-5.44165e-05
8.3045e-05
3.03246e-05
-1.94269e-05
-2.67292e-05
6.84275e-05
4.12181e-05
-2.91596e-05
3.35345e-05
3.92136e-05
3.68372e-05
-3.48372e-05
-2.81518e-05
1.41673e-05
3.52946e-05
-7.15667e-05
-2.16162e-05
4.60055e-05
3.64992e-05
2.31859e-05
-3.12355e-05
-7.13484e-05
2.25478e-05
-3.52727e-05
7.69853e-05
-4.16435e-05
-1.37861e-05
7.45141e-05
-5.40669e-05
4.00399e-06
-1.77847e-05
-5.58053e-05
2.01231e-05
5.95977e-06
5.05813e-05
6.31161e-05
-6.58258e-05
8.14185e-05
-4.32234e-05
-2.44335e-05
2.67205e-05
4.39421e-06
9.56806e-06
7.65512e-06
4.39119e-06
-4.22159e-05
2.17031e-05
1.01278e-05
-1.56357e-05
-7.88145e-05
-2.79717e-05
-7.33172e-06
2.62832e-05
6.22857e-06
2.38398e-05
-8.04116e-06
5.26162e-05
3.00963e-05
-3.07958e-05
-8.68588e-05
1.14746e-05
3.87332e-05
1.11606e-05
-2.85619e-05
-9.12463e-06
-2.48139e-06
2.21182e-05
-3.22994e-06
2.53447e-05
2.25464e-05
3.20962e-05
-2.0874e-05
-3.06289e-06
6.05558e-06
-3.41376e-06
3.49663e-05
-2.44873e-05
5.34734e-05
1.96629e-05
1.27886e-05
-1.15689e-05
2.9253e-05
2.87092e-06
3.39592e-05
-1.87167e-05
-2.8864e-06
-6.90415e-05
2.46685e-05
-5.03904e-06
-1.26838e-05
2.05981e-05
-2.63399e-05
-2.66195e-06
-3.02475e-05
-7.3893e-05
-1.16546e-05
0.000124286
-9.67182e-05
2.30568e-05
4.0888e-05
1.12085e-05
1.89699e-05
2.29749e-05
-6.50403e-05
-1.85564e-05
-3.58939e-05
9.88832e-06
-2.25083e-05
-0.000114619
5.06439e-05
-0.000120174
-5.21552e-05
0.000129995
-2.85541e-05
-3.29316e-05
1.39814e-05
-3.08815e-06
-4.58444e-06
-6.87172e-05
5.01052e-07
2.54062e-05
-3.06814e-05
-4.83696e-05
-2.09839e-05
3.77459e-05
3.99081e-05
1.09903e-05
-3.37759e-05
2.43064e-05
4.91923e-05
4.58607e-05
-7.13925e-05
-6.57424e-05
-4.48681e-05
5.14658e-05
2.45101e-06
-1.54716e-06
-6.96706e-05
3.4261e-07
-1.04236e-05
6.89458e-06
-2.29044e-05
-2.35578e-06
-3.06217e-05
3.27418e-05
-3.2268e-06
-1.03376e-05
-2.52563e-05
2.84621e-05
9.52228e-05
-3.02619e-05
3.21717e-05
4.43811e-05
-4.54093e-05
-0.000101102
-3.30776e-05
0.00011101
6.25442e-05
-5.28279e-05
-0.000107186
-1.18128e-05
6.85672e-05
3.46117e-05
-5.40467e-05
-5.21382e-05
4.75174e-05
-4.06367e-05
-0.000119436
6.1204e-05
-1.81563e-05
-3.11725e-05
0.000105493
-4.54735e-05
-9.29439e-05
-5.38456e-05
9.50601e-06
-5.54991e-05
1.67228e-05
4.28176e-06
-7.23697e-05
6.52391e-06
4.59251e-05
6.77723e-06
-2.06719e-06
5.32219e-05
2.83386e-05
-3.7598e-05
-4.85517e-05
0.000104193
-1.62808e-05
-5.72752e-06
-2.96999e-05
-2.67243e-06
-4.58122e-05
8.22777e-06
-1.31112e-05
-4.38888e-05
-3.36712e-05
-5.49543e-05
4.80606e-05
-3.43904e-05
5.50933e-05
-3.26771e-05
-2.49939e-05
-9.60915e-06
3.26966e-05
-4.34379e-05
8.21741e-05
3.99002e-06
1.01078e-05
-2.64163e-05
-1.68558e-06
5.18314e-05
-5.05229e-05
7.65341e-05
-2.69972e-05
-2.84479e-05
5.25324e-06
1.91294e-05
5.75274e-05
-1.55077e-05
1.41474e-05
1.54795e-05
9.67543e-05
-2.60595e-05
2.79746e-06
-6.86488e-05
-4.36441e-06
5.35557e-06
-6.23055e-07
-1.12274e-05
2.76116e-05
-7.06456e-05
2.38866e-05
3.64636e-05
-5.86116e-06
-1.47324e-05
5.85362e-05
-1.46357e-06
5.05592e-07
-8.36398e-06
-6.68822e-05
-7.45885e-06
-5.66771e-05
5.49144e-05
-1.55682e-05
-6.51169e-05
1.93971e-05
-2.5009e-05
1.49552e-05
4.44499e-05
-8.87853e-06
-5.64915e-05
-7.07043e-05
-8.34174e-06
-2.96303e-05
-2.15287e-06
-1.83213e-05
-1.89291e-06
-0.000102778
8.74791e-06
3.24822e-05
3.0796e-05
-0.000103662
-3.61556e-05
2.02425e-05
8.39109e-05
4.753e-06
-1.31455e-05
3.19693e-05
7.14674e-07
-3.71368e-05
-7.51379e-05
-6.92117e-05
-2.21282e-06
-7.09705e-05
1.36718e-06
-4.37519e-05
5.21007e-05
-3.20333e-05
-2.11225e-05
9.38203e-06
-1.06066e-06
4.85091e-06
-2.59297e-05
5.7298e-05
-2.0384e-05
4.02208e-05
1.71231e-05
-4.36113e-05
4.79096e-06
-4.09897e-05
-3.49013e-07
2.30946e-05
-3.31622e-05
1.34483e-05
1.23589e-05
-2.61038e-05
-4.63813e-05
1.17682e-05
-4.40205e-05
0.000100773
4.16173e-05
5.95755e-05
5.72752e-06
3.63553e-06
3.72167e-05
-2.83866e-05
-2.65326e-05
-3.87034e-05
-3.32438e-05
-2.94473e-06
-4.83473e-06
-7.42385e-05
-9.21183e-05
-4.12925e-05
9.36039e-05
1.79686e-05
2.46144e-05
5.07899e-05
-3.90919e-05
-4.86934e-05
-6.07772e-05
2.91872e-05
-7.01525e-05
2.39778e-05
5.71006e-05
1.43809e-05
-8.54447e-05
6.4892e-05
5.64149e-06
1.15009e-05
-0.000120717
5.3374e-05
7.36075e-05
5.39108e-06
1.38734e-05
1.18413e-05
-9.65118e-06
3.66954e-05
-3.03434e-05
4.71816e-05
6.17246e-05
-4.68141e-06
-4.04326e-05
-2.984e-05
4.83368e-06
-1.19209e-06
4.36947e-05
-1.84914e-06
-1.13774e-05
-1.70612e-05
7.8248e-05
-4.5842e-06
1.7914e-05
-3.62856e-05
-7.78632e-05
7.38346e-05
-9.19312e-05
-5.20772e-06
2.09284e-05
2.30595e-06
7.05894e-05
3.83815e-05
7.42113e-06
5.50146e-05
-1.01443e-05
4.60945e-05
-1.68375e-05
-5.8875e-05
-4.91891e-05
5.14216e-05
5.45885e-05
-1.9853e-05
5.81009e-05
3.02008e-05
1.38805e-05
2.24962e-05
6.25562e-05
6.90192e-06
-8.80082e-05
-1.34252e-05
-5.00772e-06
4.87e-05
5.9925e-05
6.30917e-05
1.42714e-06
2.14427e-05
-2.66385e-05
-9.90462e-06
-6.22044e-05
-1.60285e-05
3.25947e-05
-3.85358e-05
-1.90416e-05
5.31547e-05
-2.28166e-05
1.54101e-05
-4.23559e-05
-5.64614e-07
-5.11485e-05
-1.0791e-05
-0.000114607
2.06345e-05
1.91701e-05
7.28538e-05
2.73276e-05
-4.94905e-05
5.05785e-05
5.2787e-05
6.41999e-05
-7.9897e-06
4.43974e-05
-4.86512e-05
-2.58867e-05
-3.12885e-05
9.7664e-05
-4.46024e-05
-4.87096e-05
2.7045e-05
-5.0458e-05
1.36549e-05
-9.01835e-05
-0.000131356
6.04797e-05
5.67493e-05
-1.70094e-05
2.47729e-05
-9.10822e-06
5.16702e-05
-8.06584e-05
3.82912e-05
3.78342e-05
1.59069e-05
-7.97585e-06
-6.65546e-06
3.57421e-05
3.1377e-05
-9.32621e-05
-4.72958e-05
-9.38072e-05
-4.97692e-05
6.84743e-05
-3.54394e-05
9.14512e-06
-3.6623e-05
3.87209e-05
1.69347e-05
4.47606e-05
-5.40497e-05
2.94941e-05
6.61319e-05
1.22413e-05
-6.6429e-05
1.13342e-06
1.48162e-05
-1.36936e-05
6.08946e-05
-9.09204e-07
7.89308e-05
9.09646e-06
5.26162e-05
-9.66374e-05
3.41132e-05
6.60552e-06
-1.27819e-05
-4.43456e-05
-2.06701e-05
3.14997e-06
-9.30391e-07
-6.30611e-05
-0.000100799
-4.15874e-05
-9.1508e-05
-4.81865e-05
5.62918e-05
-1.52458e-05
-5.22906e-05
-2.41201e-05
-1.08294e-05
-4.57689e-05
-4.23098e-05
1.19052e-05
2.8361e-05
-1.41362e-05
-5.28244e-05
-6.13476e-05
1.77323e-05
1.07327e-05
-2.08275e-05
5.9631e-05
1.79047e-06
2.51202e-05
-2.36356e-05
5.88677e-05
3.18954e-05
4.76104e-05
-7.31894e-05
7.22464e-05
-0.000100922
-6.24091e-06
6.49311e-05
8.48947e-06
3.23069e-05
-3.30689e-06
-4.32199e-05
2.37837e-06
1.99964e-05
-1.2729e-05
9.59379e-06
3.61394e-05
2.75431e-05
6.92137e-05
-2.72412e-06
-6.32236e-05
-6.14591e-06
-7.611e-06
-1.02113e-05
4.45035e-05
5.20132e-06
2.67315e-05
-6.63009e-06
-4.79876e-06
-2.94803e-05
1.43549e-05
5.68922e-06
6.79197e-05
9.01218e-06
3.43908e-05
1.84247e-05
1.29037e-05
-4.46524e-05
3.45936e-05
3.36549e-05
1.93832e-06
-1.88091e-05
4.46875e-05
-5.23899e-05
6.75366e-05
7.7465e-05
6.37223e-06
8.13847e-05
-3.18105e-05
2.20664e-05
-1.73564e-05
-2.87807e-05
-6.86573e-05
1.19236e-05
2.47911e-05
1.23705e-05
-3.48676e-05
2.16777e-05
-2.20753e-05
-3.52541e-06
1.23351e-05
1.70944e-06
2.97131e-05
-6.88561e-05
-1.33734e-05
9.18958e-05
-3.43513e-05
1.47286e-05
-1.23635e-05
4.9457e-05
2.42064e-05
-4.44683e-05
5.05936e-05
0.000106778
9.66929e-05
6.52506e-05
8.89762e-07
-7.20692e-06
-1.14567e-05
6.66901e-05
-5.44824e-06
4.01791e-05
-2.33982e-05
4.17561e-05
-3.41268e-05
-2.13975e-05
6.28084e-06
-2.62642e-05
3.58209e-05
-8.93142e-05
4.69466e-05
-3.5755e-05
3.30247e-05
2.34637e-05
-9.97117e-05
2.21339e-05
3.57018e-05
-1.87464e-05
2.13267e-05
-6.78233e-05
2.71618e-05
-5.16977e-05
5.68144e-05
4.88434e-05
-1.7481e-05
3.80408e-05
4.54169e-05
1.17876e-05
-8.37992e-06
2.07494e-05
-2.05637e-05
5.28255e-05
-7.57064e-05
-4.26272e-05
-7.6727e-06
2.04986e-05
-1.54355e-05
-3.12328e-05
1.17397e-05
6.21653e-05
4.88084e-05
4.33647e-06
-0.00012757
-5.02244e-05
-6.86677e-05
-6.60998e-05
3.09133e-05
7.6151e-05
-7.01359e-05
-7.03032e-06
9.28529e-06
4.82404e-05
3.83984e-06
8.47317e-06
-6.75764e-05
-1.85834e-05
1.21734e-05
-8.66828e-06
-3.19523e-05
-1.42832e-05
3.18442e-06
7.33044e-06
1.82405e-05
2.56515e-05
-6.7884e-05
-4.71435e-06
3.4929e-05
-5.05324e-05
1.07944e-05
-1.50147e-05
-1.63051e-05
-2.95395e-05
9.53886e-05
2.63902e-05
-1.76691e-05
-2.15018e-05
-1.27995e-05
8.03266e-06
-1.35809e-05
2.63904e-05
-7.18504e-06
-1.90848e-05
2.17274e-05
5.39324e-05
-9.03434e-05
5.79039e-05
-1.44772e-05
-1.46055e-05
-3.83228e-05
-4.5439e-05
2.61621e-05
5.7482e-05
2.07163e-05
1.80587e-05
2.61941e-05
-7.22194e-06
-2.65965e-05
2.38707e-05
-3.81793e-05
-3.29991e-05
2.8661e-05
4.19584e-06
5.34139e-05
-1.2902e-05
-4.5466e-06
9.10494e-05
1.63321e-05
1.6914e-05
-4.6327e-05
3.55743e-05
-3.91717e-05
2.2946e-05
1.72227e-05
3.0864e-06
6.80584e-05
6.72811e-05
-1.70232e-05
-7.54697e-06
4.55858e-05
-1.23873e-05
-6.61262e-06
0.000122597
3.26277e-05
1.82132e-05
2.49494e-05
-5.22539e-05
-2.22395e-05
-5.70167e-05
1.30455e-06
7.6904e-06
2.41782e-05
1.07717e-05
-5.20684e-05
1.76704e-05
6.44929e-05
-6.11884e-05
5.44074e-05
-4.49322e-05
-7.05203e-05
6.23078e-06
3.27919e-05
4.70872e-05
1.32667e-06
1.32956e-05
-7.78601e-05
-2.8183e-05
-6.89272e-06
0.000112601
3.68474e-05
-3.34256e-05
4.85627e-05
3.18348e-05
1.14889e-05
6.94901e-05
0.000133271
-7.38588e-05
-4.20369e-05
-1.68968e-05
2.04106e-05
8.13243e-06
-1.95544e-05
3.47551e-05
5.05911e-05
-6.30392e-05
-4.2269e-05
1.79623e-05
5.70345e-05
-6.66361e-07
2.83982e-05
-3.478e-05
-8.23166e-05
-3.16931e-05
-5.51023e-05
-1.69482e-05
6.43993e-05
-5.57774e-05
5.25214e-05
-0.00011234
-7.10648e-05
-1.52234e-05
-1.60272e-05
-3.59302e-05
5.28325e-05
4.40273e-05
-4.75452e-06
-6.05785e-05
-2.03247e-05
1.72127e-05
2.40905e-05
-2.15005e-05
-3.80276e-05
1.84211e-05
-5.2297e-05
-1.48044e-05
-9.0426e-05
-1.86138e-05
-1.40988e-05
0.000121307
-2.547e-05
5.25209e-05
3.79471e-05
3.11935e-05
-3.85306e-05
-5.10272e-06
-4.49661e-05
2.62951e-05
1.12428e-05
-1.86053e-05
1.74432e-05
-3.76217e-05
8.71101e-06
-3.17952e-05
7.14649e-05
-7.47021e-05
0.000101809
5.19642e-05
3.18051e-05
1.94152e-05
4.63653e-05
-3.00491e-06
1.62397e-05
7.99993e-05
3.67616e-06
-1.37992e-05
-5.21091e-05
-5.62189e-05
2.68223e-05
-3.78023e-05
-4.78231e-05
2.88626e-05
-2.68994e-05
-1.16546e-05
-5.02805e-05
3.10764e-05
-2.00601e-05
3.8109e-05
-8.71744e-05
-4.69049e-05
1.67186e-05
4.92434e-05
9.12813e-06
1.42585e-06
-6.69421e-05
-7.27302e-05
-1.43618e-05
-9.74454e-06
-1.56979e-05
2.67376e-05
-9.21225e-05
-5.88649e-05
-1.25873e-05
5.10605e-05
-8.97489e-05
7.86018e-05
1.30897e-05
1.51682e-05
-0.000114672
-4.19708e-05
1.06478e-05
8.84163e-05
-6.75325e-06
-6.93067e-06
1.08078e-05
-9.15194e-05
-1.49586e-05
1.07784e-05
5.18087e-05
-3.28287e-05
4.25938e-05
9.43081e-06
7.85803e-07
4.03608e-05
-3.83426e-06
2.66726e-05
-2.21875e-05
6.11763e-07
2.16393e-06
1.83085e-05
-2.01636e-05
-7.5235e-05
-8.20155e-05
-4.08834e-05
3.0688e-05
3.11448e-05
-1.76032e-05
-1.14897e-05
3.87502e-05
9.27411e-06
1.17533e-05
-4.44868e-05
-5.27485e-05
-4.2652e-05
9.60719e-05
-3.91064e-05
-6.17561e-05
-4.51247e-05
4.72029e-06
-4.1578e-05
-1.74786e-06
2.57666e-05
4.81143e-05
-3.50766e-05
2.8915e-05
3.42641e-05
2.19486e-05
-2.03149e-05
-2.84291e-05
2.95846e-05
6.2325e-05
1.81488e-05
-1.77096e-05
-4.22896e-05
-3.51784e-06
6.32219e-05
3.54624e-06
7.63196e-06
-5.2941e-06
1.01695e-05
2.74982e-05
2.91364e-05
-2.60755e-05
-5.97397e-05
8.67876e-05
3.29314e-05
-1.45729e-05
-1.4237e-05
5.729e-05
3.84287e-06
9.81889e-05
0.000121367
-2.85937e-05
2.49979e-05
7.872e-06
-1.86713e-05
-1.70154e-05
-7.32372e-05
0.00011208
-1.25971e-05
-6.01785e-05
7.86269e-06
3.08842e-05
9.78424e-06
7.84104e-06
1.71366e-05
4.81959e-08
-2.67223e-05
-2.56806e-05
-4.13371e-05
-4.55838e-05
-1.76234e-05
-7.76618e-06
-4.82695e-05
7.13979e-05
1.64242e-05
3.01739e-05
-3.19597e-05
1.3984e-05
-1.394e-05
-1.55893e-05
4.47617e-06
-1.65858e-05
8.27658e-05
5.56015e-05
5.67234e-06
3.54118e-05
2.86207e-06
-1.63057e-05
2.07496e-05
9.63255e-06
-1.45012e-05
-4.8888e-05
-4.07479e-05
-9.69216e-06
4.12578e-05
-2.15803e-05
-3.41529e-05
5.64968e-05
-1.37317e-05
-5.04198e-05
3.84741e-05
-2.33621e-05
-1.19547e-06
-5.94468e-05
5.95255e-06
6.40079e-05
-7.39726e-05
-2.23711e-05
-4.28851e-06
-7.43162e-05
-1.58099e-05
5.60064e-05
-2.41017e-05
5.20142e-05
4.58723e-05
-3.16433e-05
0.000122277
2.89961e-05
1.20702e-05
-2.74092e-05
-3.4468e-05
-3.20203e-05
5.98456e-05
4.27903e-05
-2.5427e-05
-1.62857e-05
4.25263e-05
4.55978e-05
-7.0805e-05
-4.53838e-05
-1.75916e-05
6.0013e-05
3.70807e-05
4.36979e-05
-7.64476e-06
2.17557e-05
1.48427e-05
1.47814e-05
3.49525e-05
1.44987e-05
-7.17354e-05
5.90796e-05
3.93528e-05
-1.62123e-05
4.74526e-05
-1.84559e-05
-3.8423e-05
8.46089e-05
5.78985e-05
5.29937e-05
-2.8295e-05
-1.40264e-05
-3.38163e-06
6.56862e-05
1.70164e-05
1.81664e-05
-1.45179e-05
-3.22156e-05
8.30193e-06
5.70649e-05
3.72084e-05
6.89623e-05
3.92863e-05
3.07858e-05
-1.59347e-05
4.17506e-05
8.47259e-06
-3.21821e-05
-1.0755e-05
-1.45924e-05
5.3932e-05
1.21893e-05
2.11234e-05
-2.64748e-05
1.12986e-05
-2.39079e-05
-1.44509e-05
1.09978e-05
-7.73498e-06
4.69002e-06
1.6859e-05
6.67057e-05
1.57991e-05
-0.00010758
-8.24993e-05
6.52345e-06
-5.85072e-05
5.17322e-05
1.84865e-05
1.66773e-05
-7.07679e-05
5.68549e-06
-1.86227e-05
-4.33433e-05
5.83276e-05
-4.15358e-05
-7.76732e-05
-1.33208e-05
-3.7475e-05
-1.09931e-06
5.06311e-05
3.43448e-05
5.21401e-05
2.95315e-05
4.71438e-05
-2.02374e-05
0.000134812
5.5166e-05
-3.82706e-05
-1.12214e-05
0.000111732
1.12783e-06
-1.3834e-05
-2.07326e-05
-1.05338e-05
5.75138e-06
2.51086e-05
-6.47182e-05
1.22236e-06
0.00011825
2.02321e-05
-6.9679e-05
-8.34576e-05
9.06892e-05
4.29545e-05
-6.09934e-05
-2.33715e-06
4.52425e-06
-2.48615e-05
-7.49839e-05
-6.3011e-06
3.39795e-05
6.28869e-05
-2.65893e-06
-2.97544e-05
-6.67728e-05
-1.08315e-05
7.42322e-06
3.03183e-05
-1.26915e-05
1.26481e-05
-3.24743e-05
-1.5403e-05
4.65958e-05
-6.06757e-07
-7.33233e-05
-3.61173e-05
3.19344e-05
5.07124e-05
5.52052e-05
-3.86609e-05
-2.71022e-05
-1.73226e-06
4.00438e-05
-1.28824e-05
1.15237e-05
2.75384e-05
1.51005e-05
2.02361e-05
3.27823e-05
-0.000103584
-2.37204e-05
5.62994e-05
-3.56047e-05
-8.56415e-05
0.000101618
-2.90701e-05
2.15792e-05
-5.19507e-05
6.29353e-06
-5.95588e-05
3.80201e-06
-4.0116e-05
2.2179e-05
-9.73768e-06
6.35824e-05
-2.76127e-05
-2.54387e-05
9.06731e-05
-5.55891e-05
-3.51444e-05
1.47804e-05
-2.30939e-05
3.46851e-05
-4.10145e-05
-1.09317e-05
2.98405e-05
3.45644e-05
-4.78461e-05
-5.78744e-05
-3.72987e-05
3.58619e-05
-1.02362e-05
-1.76755e-05
3.83476e-05
4.55044e-06
-3.0726e-05
-6.31748e-05
6.19015e-06
-5.68882e-05
0.000120349
-0.000117729
-6.80868e-05
1.01868e-05
-1.02158e-05
2.8216e-05
-1.9602e-05
-6.25581e-06
3.50751e-05
9.93162e-06
-5.96482e-05
5.40573e-05
-2.97569e-05
-7.25966e-07
-9.39099e-06
-2.64803e-05
5.89007e-05
9.35846e-05
7.95011e-05
-1.68921e-05
-6.82931e-05
-7.77043e-05
4.75618e-05
-1.31782e-06
1.17444e-05
5.16303e-05
-6.31507e-05
2.21428e-05
3.45728e-05
-3.89622e-05
4.92729e-05
9.85328e-06
-2.73692e-05
-7.18009e-05
-2.20747e-06
9.41241e-06
5.68596e-05
-2.01401e-05
-8.62195e-06
7.09039e-06
9.57283e-07
-2.91977e-05
-3.67723e-05
9.87435e-07
-7.08329e-06
-7.7707e-05
4.07128e-05
2.28041e-05
-2.33529e-05
-2.82733e-05
6.35581e-06
-3.10612e-05
-2.37788e-05
5.87656e-05
3.77757e-05
-8.88543e-05
1.88741e-05
2.82151e-05
2.42067e-05
-1.97265e-05
3.13715e-05
2.67723e-05
-2.78915e-05
-1.14408e-05
4.39798e-05
-1.84722e-05
6.2898e-06
-9.41649e-06
3.67081e-05
-1.6539e-05
-2.2191e-05
-3.26345e-05
2.11543e-05
-9.05291e-05
-2.25267e-05
7.17817e-06
-1.67802e-05
-5.12952e-05
-4.15262e-05
3.02582e-05
1.87578e-05
1.34513e-05
6.7997e-05
0.000103678
-2.68696e-05
-5.6222e-05
-7.36851e-06
-8.72905e-06
-8.22102e-06
-0.000119192
3.07657e-05
9.97077e-05
7.93554e-05
2.35236e-05
2.89525e-06
3.23562e-05
6.61926e-06
-1.27412e-05
-1.12366e-05
3.50201e-06
6.08938e-05
-6.73463e-06
5.99329e-05
-9.10764e-06
-4.93438e-05
-1.25013e-05
-1.79209e-05
3.41784e-05
-3.37978e-05
7.39505e-06
5.94528e-05
0.000102923
1.58973e-05
2.07371e-06
6.60841e-05
-5.49528e-05
-6.42202e-05
4.83566e-06
5.86056e-05
-3.5362e-05
-0.000113618
-3.21862e-05
8.25245e-06
3.03725e-05
4.09479e-06
1.25881e-05
-2.57909e-05
4.03018e-06
-1.99423e-05
-0.000115459
-8.30344e-06
2.34318e-05
1.6768e-05
-9.89949e-06
-1.77942e-05
3.41057e-05
5.38379e-05
-8.89413e-07
-3.26859e-05
-1.44825e-05
1.08395e-05
2.86293e-05
1.41952e-05
-1.13221e-05
4.36332e-05
-9.70019e-06
4.36597e-05
-6.25988e-06
-6.49597e-05
8.33401e-05
7.37328e-06
-2.3359e-05
-5.29967e-05
8.21915e-06
-7.6708e-05
-5.47341e-05
1.69979e-05
-2.35285e-05
6.93041e-05
-5.89243e-05
-1.58967e-05
-3.79689e-06
-4.36553e-05
1.75042e-06
6.9089e-06
-1.56342e-05
-1.26812e-05
-6.3139e-06
-2.87474e-05
6.35837e-05
-1.2737e-05
2.98875e-05
-1.94586e-05
0.00010666
-6.87317e-05
2.64251e-06
7.9783e-05
-7.28985e-05
-2.11628e-05
-1.82888e-06
-5.65476e-06
-3.07197e-05
-1.66823e-07
6.13098e-05
-4.53608e-05
-3.93705e-06
2.74231e-05
5.10007e-05
6.30133e-06
2.15231e-05
-5.9315e-05
-4.52384e-05
-4.56914e-05
-4.39741e-05
-2.38911e-05
-5.03426e-05
-2.24269e-05
-6.2891e-05
1.11946e-05
0.000117078
1.08852e-05
1.60362e-06
7.11577e-06
-1.2483e-05
-9.79607e-05
1.17276e-05
-2.43353e-05
-6.52869e-05
-4.5734e-05
9.77494e-05
-2.84504e-05
2.46856e-05
2.89709e-05
-3.39509e-05
9.19254e-05
-5.06385e-05
-3.13997e-05
4.17465e-07
2.26258e-05
5.23943e-05
-4.6351e-05
3.0197e-06
-7.25876e-05
3.62427e-05
4.53799e-05
5.10277e-05
4.96123e-05
1.14616e-05
6.3146e-06
1.38574e-05
1.41456e-06
1.35631e-05
-5.94305e-05
-5.26089e-05
-3.14451e-05
3.68987e-05
-1.13063e-06
4.39328e-06
1.65973e-05
1.01095e-05
-4.56735e-05
-5.67073e-05
-2.16055e-05
3.75358e-06
3.02105e-05
2.47173e-05
-3.70548e-05
-4.6816e-05
-8.03266e-05
-3.89204e-05
8.46446e-05
4.35197e-05
1.98981e-05
-8.17585e-06
-6.95721e-06
-5.3876e-05
3.5844e-05
-6.18508e-05
7.90434e-05
-1.59479e-05
-3.99172e-05
-6.26172e-05
3.51213e-05
5.15337e-05
1.97068e-06
-3.47057e-06
-9.94955e-06
5.45725e-05
-4.35946e-05
-3.20036e-05
3.58507e-05
-2.33698e-05
-7.19365e-06
3.16277e-05
-2.36785e-05
4.79083e-05
6.11598e-05
-1.50191e-05
5.83358e-05
-1.60113e-05
-5.55501e-05
-4.11179e-05
3.92948e-05
8.73662e-05
-9.01869e-06
2.39066e-05
5.31226e-05
-2.11818e-06
3.75926e-05
-6.11142e-05
-5.37825e-05
4.7565e-05
-2.97432e-05
-7.41602e-05
-1.30141e-05
3.82971e-06
-4.95901e-05
-1.00627e-05
1.48062e-05
3.36743e-06
-4.77561e-05
-3.26617e-05
4.77955e-06
4.40958e-05
4.04308e-05
-4.65777e-05
-4.65791e-05
9.95432e-06
6.58093e-05
1.77752e-05
-1.76018e-05
-0.000102062
4.74706e-05
-2.01665e-05
-7.77561e-06
-8.79902e-06
4.50332e-05
-5.59166e-06
-5.70053e-05
-1.93109e-05
-3.39665e-05
4.75905e-05
2.16508e-05
-2.22091e-05
-2.47788e-05
-2.54149e-05
-5.89027e-06
-1.15657e-05
-4.13181e-05
-4.02358e-05
1.20583e-06
-4.48261e-05
2.04248e-05
3.3807e-06
-2.82915e-05
3.01644e-05
9.34873e-06
-6.71298e-05
-4.05739e-05
7.09337e-05
-3.39552e-05
-2.67511e-05
2.17742e-05
1.56355e-05
1.44392e-05
-8.90193e-06
-1.19942e-05
1.44324e-05
8.7028e-05
-9.70089e-07
1.24229e-05
-5.59279e-05
-1.92773e-05
3.90807e-05
3.06917e-06
-4.05497e-05
7.56653e-06
6.72848e-05
3.94991e-05
-7.4754e-05
-3.48641e-05
2.46887e-05
-5.16151e-05
3.76673e-06
-4.08548e-05
-1.83191e-05
8.32829e-05
-3.53504e-05
-3.56362e-05
-9.10193e-06
-2.37036e-05
-7.61581e-05
-4.31731e-05
-3.44524e-05
3.03324e-05
-5.93207e-05
-4.43429e-05
-1.38483e-05
2.80144e-05
4.43456e-05
7.11204e-06
-4.18397e-07
-3.37956e-05
5.63173e-05
4.62113e-05
-7.51619e-05
0.000106831
-4.85468e-05
-1.38164e-05
-8.41217e-07
-1.47608e-05