# vtk DataFile Version 1.0
Net Charge Density
ASCII
DATASET STRUCTURED_POINTS
DIMENSIONS 256 128 1
ORIGIN 0 0 0
SPACING 0.15625 0.15625 1
POINT_DATA 32768
SCALARS rhonet float
LOOKUP_TABLE default
-3.89642e-06
-9.51274e-05
0.000144792
9.63219e-05
3.56846e-05
0.000120451
-0.000118445
9.18584e-05
0.000154216
2.28995e-05
-3.75609e-05
0.000108725
0.000103821
7.94455e-05
0.000109346
4.99608e-05
8.77433e-05
0.000140236
4.05881e-05
-6.79101e-05
-6.40703e-06
0.000141859
0.000144767
4.77824e-05
3.72678e-05
2.07424e-05
7.74217e-05
9.0589e-05
-1.35223e-05
-7.27428e-05
5.23024e-05
3.97239e-05
4.3669e-05
6.90082e-05
1.24414e-05
0.000171713
1.68073e-05
7.28721e-05
7.7358e-05
-5.53124e-06
2.29322e-05
6.83183e-06
0.000136404
9.39809e-05
2.09386e-05
1.8683e-05
-3.16134e-05
6.95542e-05
0.000116213
7.88728e-05
-1.20074e-05
2.49784e-05
8.34422e-05
0.000148995
3.5595e-05
1.75041e-05
0.000151011
-5.17471e-05
5.67804e-06
7.16954e-05
5.02795e-05
6.06022e-05
7.16792e-06
8.01804e-05
8.22487e-05
-8.03831e-05
4.41818e-05
0.000136175
4.09958e-05
4.8283e-05
7.92339e-05
3.67108e-05
-2.69158e-05
4.96672e-05
-1.14902e-07
5.11552e-05
4.20861e-05
-3.8308e-05
9.21622e-05
0.000106615
8.71841e-05
2.54082e-05
7.49616e-05
0.000101106
4.54684e-05
-4.47966e-06
-1.66915e-05
6.70488e-05
0.000119669
-2.34875e-05
9.00025e-05
-1.47951e-05
-3.90529e-05
-6.21437e-06
-8.99174e-05
5.22718e-05
0.000157961
2.40975e-05
9.16885e-05
-2.49445e-05
0.000157723
9.09192e-05
-3.16952e-06
9.47255e-05
3.90382e-05
0.00013097
-2.57976e-07
-6.85488e-05
2.66242e-06
7.39995e-05
0.00013342
5.7928e-05
2.02991e-05
3.31157e-05
8.04209e-05
4.36598e-05
1.22656e-05
7.49688e-05
5.09603e-05
4.32276e-05
-3.98804e-05
-3.45628e-05
4.04443e-05
2.44896e-05
0.00011572
6.60875e-05
1.8255e-05
8.13097e-05
1.99643e-05
-1.88099e-05
0.000119797
9.26157e-05
-2.24425e-06
3.77488e-05
2.03244e-05
6.79679e-06
4.46091e-05
-3.1916e-05
4.68965e-05
-1.15031e-05
-4.98405e-05
2.32961e-05
2.09627e-05
0.000160761
9.88222e-05
2.06416e-06
0.000137836
1.15242e-05
-3.11239e-05
0.000132418
1.78268e-05
2.91318e-05
0.000108428
-8.34535e-06
3.45043e-05
4.32307e-05
5.74684e-06
3.42712e-05
-5.27652e-06
1.75425e-05
7.6778e-05
2.50083e-05
0.000112709
-2.20692e-05
3.25855e-05
2.55229e-05
5.84618e-05
-6.12721e-05
0.000105448
0.000137295
2.50291e-05
4.32238e-05
7.45819e-05
0.000111579
-2.02679e-05
-8.13347e-06
8.72927e-05
-8.23223e-05
1.15579e-05
3.31809e-05
8.87695e-05
-7.06003e-05
-3.18114e-05
5.65359e-06
1.04988e-05
7.98542e-05
4.142e-05
7.20925e-05
0.000102554
7.46857e-05
2.48841e-05
0.000198125
8.16125e-05
-6.56996e-05
6.24196e-05
0.000201229
4.75225e-05
8.32751e-05
7.8667e-05
-1.63087e-05
5.95985e-05
0.00014917
4.39015e-05
3.83358e-05
-1.00757e-05
6.9771e-05
-5.9888e-05
5.34235e-05
6.86808e-05
8.57904e-05
6.81026e-05
0.000137439
0.000106097
-2.40522e-05
0.000111081
-0.000131281
0.000102691
9.90948e-05
-5.2873e-05
-3.79214e-05
8.69744e-05
0.000114877
0.000176992
3.40521e-05
7.95301e-05
5.6745e-05
-3.69134e-05
-1.51398e-05
8.69035e-05
6.86066e-05
6.22845e-06
4.16548e-05
2.36374e-05
2.60696e-05
0.000121308
-3.55702e-05
-2.0577e-05
2.75008e-05
5.94511e-05
8.97981e-06
1.84993e-05
8.66944e-05
-5.82666e-05
-3.07104e-07
2.65902e-05
-1.44097e-05
-2.21957e-05
-3.95465e-05
0.000128655
-4.29631e-06
2.10482e-05
-3.85129e-05
0.000102293
2.1438e-05
2.40527e-05
4.18612e-05
-0.000104899
2.47045e-05
-6.30287e-05
-2.51196e-05
-2.38874e-05
5.1226e-05
-2.60443e-05
-7.5764e-05
4.98934e-05
-6.60464e-05
-4.29002e-05
2.33413e-05
-5.99086e-05
-8.02726e-05
3.00223e-06
-4.24262e-05
4.66208e-06
1.08915e-05
-2.15755e-05
-4.06068e-06
-5.82075e-05
-6.7494e-05
-0.000106139
-1.792e-05
-2.00456e-05
-5.72719e-05
-2.52764e-05
7.73021e-06
-3.07407e-05
-8.53871e-05
-3.53892e-05
-8.36176e-06
2.7442e-05
-7.95685e-05
-6.67484e-05
2.31336e-05
-0.000103178
-3.37884e-05
1.98346e-05
-8.20329e-05
-5.15874e-05
-4.38406e-05
8.67294e-06
3.55999e-05
-2.47129e-05
4.87419e-06
-0.000112384
-3.15169e-05
3.88797e-05
-3.39415e-05
-6.56131e-05
-4.11929e-05
-3.17375e-05
2.9823e-05
-2.85323e-05
-3.54567e-05
-2.34863e-05
-0.00011611
1.48106e-05
-3.37929e-05
4.56304e-05
-5.12686e-05
-5.72854e-05
-3.73456e-05
-3.01476e-05
-6.05667e-05
-1.00285e-05
-7.96341e-05
-0.000109192
1.21042e-05
-4.39812e-05
9.01753e-06
-1.84351e-05
1.72416e-05
-5.13529e-05
-1.04343e-05
4.76096e-05
-2.54943e-05
5.74089e-05
2.15834e-07
-3.24119e-05
-5.04444e-05
-8.22564e-05
2.84825e-05
2.44661e-05
-6.1695e-05
-0.000158637
-4.16982e-05
-6.60075e-08
-1.69135e-05
8.77329e-06
5.3313e-05
3.15579e-06
-1.07943e-05
2.47147e-05
-5.96535e-06
3.43228e-05
-2.73116e-05
-6.84697e-06
-1.89489e-06
-4.36438e-05
-0.000106617
-3.96518e-05
-2.96775e-05
-3.55598e-05
1.6422e-05
-5.91234e-05
-4.27185e-05
-1.06718e-06
-5.99993e-06
5.4352e-05
-3.54236e-05
-7.13798e-05
-7.13184e-05
4.01699e-05
1.15477e-05
-5.23515e-05
-1.11549e-05
9.64571e-06
3.18992e-05
-8.5775e-05
1.39615e-05
-6.13795e-05
-7.7415e-06
-3.48628e-05
-1.67103e-05
-4.55661e-05
-6.96029e-05
1.70248e-05
-4.881e-05
-2.07972e-05
1.59818e-05
-1.05535e-05
-2.35453e-05
-1.24417e-05
-3.31044e-05
-4.60123e-05
-1.33575e-05
-4.22454e-05
-8.32311e-06
-5.94479e-05
-7.82581e-05
8.69762e-06
-2.01969e-06
-8.38251e-05
1.05487e-05
-3.22354e-05
-4.36766e-05
-0.000117681
-8.72603e-06
-3.99578e-05
-3.83074e-05
-7.16748e-05
9.37073e-06
3.00049e-05
-1.70406e-05
-2.39993e-05
-1.85624e-06
-5.11223e-05
-2.02563e-05
-8.13486e-05
-6.40949e-05
3.62433e-05
-8.0271e-05
-7.5628e-06
2.37462e-05
2.21168e-05
-5.27813e-05
-2.4247e-06
3.60706e-05
-9.46567e-05
1.02378e-05
-2.21475e-05
3.97031e-05
-4.13512e-05
-2.5548e-05
-5.70086e-06
3.04059e-05
-6.90701e-05
-4.77678e-05
3.67505e-05
-4.79666e-06
2.0588e-06
-4.86565e-05
-0.000107547
-6.60244e-05
-2.66009e-05
-2.24798e-05
-9.33046e-06
-1.88572e-05
-0.000101449
6.32228e-06
3.69593e-05
4.61051e-06
-1.08494e-05
-2.36543e-05
-8.50843e-05
-3.90909e-05
4.81105e-05
-6.97759e-06
-7.51889e-05
-6.46276e-05
-4.37896e-05
3.07558e-05
-5.53513e-05
1.83121e-06
-5.12169e-05
9.7167e-05
1.17973e-05
-4.14067e-05
-5.22409e-05
-4.83998e-05
-4.73992e-05
3.21252e-05
-3.50832e-05
-7.29868e-05
1.69768e-06
-2.53877e-05
-1.98879e-05
4.50586e-06
-1.73198e-05
7.05675e-05
5.70888e-05
-6.70664e-05
-3.48976e-05
-2.73383e-05
-7.02047e-05
-2.06063e-05
2.42675e-05
8.58861e-05
-8.70345e-05
6.93486e-06
-4.34536e-05
-3.62698e-05
6.9032e-05
3.75882e-05
-6.2759e-05
-4.99166e-06
2.5542e-05
-5.11215e-05
2.2625e-05
-1.3483e-05
-4.80209e-05
-1.98239e-05
3.05497e-06
3.73245e-05
3.42681e-05
-1.23484e-05
-2.31676e-05
-0.000132199
-1.6659e-07
-7.60658e-06
5.12582e-05
-7.35256e-06
-7.36321e-05
5.01762e-06
-3.30425e-05
-1.99082e-06
5.00248e-05
-7.79761e-06
-2.33892e-05
-8.48004e-06
1.05426e-06
-1.92296e-05
7.13235e-05
-5.15232e-05
7.82218e-06
3.11629e-05
6.53439e-05
-4.67903e-05
-2.90644e-05
-1.14909e-05
-2.49568e-05
-9.34284e-05
-2.04821e-05
3.51595e-05
4.8863e-05
3.6408e-05
-1.64525e-05
3.77696e-05
6.14576e-05
-4.75241e-05
4.48454e-05
4.40087e-05
9.82266e-06
-5.10864e-05
1.2307e-05
2.34442e-05
7.04306e-05
4.96682e-05
-3.57145e-05
2.25287e-05
5.27408e-06
-2.51166e-05
4.80089e-05
3.40402e-05
2.11624e-05
-2.89199e-05
-7.34264e-05
2.16749e-05
3.48731e-05
1.4212e-06
-4.63356e-05
1.81701e-06
-1.65714e-05
5.22442e-05
1.9271e-05
-4.25105e-05
-9.05951e-05
6.88457e-06
2.94282e-05
9.43255e-06
3.9076e-05
-4.01762e-05
2.79775e-05
-3.30701e-05
9.02755e-05
1.87055e-05
2.19354e-05
-2.38946e-05
3.89211e-05
7.9507e-05
-1.43028e-06
-1.07865e-05
-4.31227e-05
-5.63421e-05
3.65553e-05
5.69131e-06
-2.97661e-05
3.18505e-05
-3.75104e-05
-1.97684e-05
6.36959e-05
5.06416e-05
-4.80587e-05
-4.18769e-05
-9.31311e-06
-2.63557e-05
-1.3366e-05
5.09447e-05
7.4107e-05
-1.38805e-05
-5.5213e-05
-6.02389e-05
2.25471e-05
4.0165e-05
-3.56468e-05
4.60861e-05
6.04026e-05
1.0042e-05
-2.72851e-05
-6.84019e-05
1.03847e-05
-3.90657e-05
-6.6731e-05
1.89329e-05
-3.86649e-05
-7.26082e-05
1.55349e-05
3.44666e-05
-9.18214e-06
-2.52391e-05
3.49993e-05
6.71942e-05
-7.81426e-06
-2.34854e-05
1.9087e-05
-3.45567e-05
-3.24706e-06
3.17616e-05
-4.33618e-05
-4.44562e-05
-1.29165e-05
6.19072e-05
-1.54722e-05
-1.92424e-05
-9.34349e-07
1.07803e-05
-2.67865e-05
6.43285e-05
6.2841e-07
3.16107e-05
-3.4544e-05
-2.02109e-05
3.29813e-05
-8.92975e-06
-5.33776e-05
-6.58383e-05
-1.9774e-05
2.38337e-06
3.65473e-05
8.36793e-06
-1.87755e-06
1.48288e-05
-2.7574e-05
4.24775e-05
2.79527e-05
9.69106e-05
6.65835e-05
1.9426e-05
1.45668e-05
-1.36638e-05
5.90172e-05
5.77694e-05
-3.53302e-05
8.65562e-05
-1.8848e-05
-2.10227e-05
-5.39365e-05
1.12341e-05
-1.22986e-05
7.03161e-05
-1.0787e-05
6.14894e-06
5.77935e-05
3.47522e-05
-3.56393e-05
-5.85604e-06
4.38265e-05
2.99955e-05
1.48879e-05
3.0942e-06
-6.29969e-05
1.44141e-05
-9.34466e-05
4.10882e-05
-3.34159e-05
-7.29719e-05
6.78643e-06
-4.31379e-05
3.26069e-05
-5.40693e-05
-3.5189e-05
-7.38061e-06
-3.46784e-05
7.78178e-06
5.28591e-05
1.66988e-05
-1.61538e-06
7.61893e-05
-2.89595e-06
5.27897e-05
3.30992e-05
2.69052e-05
3.20115e-05
-4.14015e-05
-7.91212e-05
6.70389e-06
-3.71062e-05
3.38885e-07
3.12878e-05
2.55893e-05
4.62427e-05
-7.34488e-06
3.85569e-05
-1.82483e-05
8.60391e-05
-3.51763e-05
-2.42111e-05
-2.4479e-05
3.96878e-05
3.9636e-05
-5.59643e-06
-1.59822e-05
5.26491e-05
-3.12825e-05
-9.51311e-06
1.32091e-05
3.03081e-05
4.01441e-05
-6.21304e-05
6.55768e-06
-4.02802e-05
7.68161e-05
-2.30572e-05
2.42738e-06
-2.36239e-05
-7.65675e-06
1.05589e-06
-7.58457e-05
1.89053e-05
4.24923e-05
2.73273e-06
-4.68805e-05
-0.000111356
2.32973e-05
1.92825e-05
1.66951e-06
4.1142e-05
-1.26261e-05
3.11458e-06
-2.15392e-05
-7.41895e-05
3.57793e-05
1.81665e-05
-4.43212e-05
1.38057e-05
2.49421e-05
-1.40069e-05
-5.45263e-05
-1.59673e-05
4.84828e-05
-4.49945e-06
-0.000139603
5.79737e-05
3.08061e-05
0.000100899
-3.72756e-05
3.82721e-05
1.96729e-05
-2.19457e-05
-3.16999e-05
-3.15025e-05
5.79791e-05
8.84753e-05
-9.06736e-06
-5.99886e-05
9.21893e-06
8.46386e-06
-1.86265e-08
-2.07853e-05
-3.90373e-05
0.000130275
-3.43216e-05
-4.70516e-05
5.37111e-05
-2.79606e-06
2.82272e-06
-3.79183e-05
-6.05409e-05
4.75422e-05
4.8436e-05
-1.7537e-05
3.74629e-05
-5.19098e-05
4.18175e-05
3.39495e-05
-6.99731e-05
2.73657e-05
3.88061e-05
1.6781e-05
-5.26784e-05
6.28692e-05
-2.19623e-05
-4.31015e-05
-7.40332e-06
-2.6679e-05
4.25467e-05
3.6502e-06
2.75734e-05
-4.73878e-05
-6.4366e-06
3.03094e-05
-2.26301e-05
-8.19345e-05
-4.95823e-05
1.36246e-05
3.36372e-05
4.53521e-05
-3.78167e-05
6.72049e-05
-2.0206e-05
-6.23043e-05
4.74693e-05
4.62758e-05
1.24059e-05
3.82883e-05
2.15033e-05
5.87142e-05
-6.49994e-05
-4.25664e-05
-1.3412e-05
4.3906e-05
4.78701e-05
-2.23205e-05
-6.05178e-05
1.98267e-06
-2.43739e-06
-3.00119e-05
1.4892e-05
2.92044e-05
7.28872e-05
7.06634e-05
-3.58251e-05
-0.000140627
2.58461e-05
1.2035e-06
-2.88255e-05
-4.697e-05
5.72423e-05
3.12584e-05
1.75564e-05
-0.000107817
-1.58476e-05
1.13321e-05
3.9952e-05
3.28139e-05
-4.30107e-05
3.20361e-05
3.74883e-05
-3.91937e-05
2.83308e-05
3.71942e-05
-1.3714e-05
3.56366e-05
-5.44166e-05
8.30449e-05
3.0324e-05
-1.9427e-05
-2.67291e-05
6.8428e-05
4.12181e-05
-2.91598e-05
3.35351e-05
3.92137e-05
3.68371e-05
-3.48374e-05
-2.81513e-05
1.4167e-05
3.52947e-05
-7.15662e-05
-2.16154e-05
4.60052e-05
3.64989e-05
2.31863e-05
-3.1236e-05
-7.13486e-05
2.25485e-05
-3.52728e-05
7.69852e-05
-4.16436e-05
-1.37859e-05
7.45137e-05
-5.40664e-05
4.00364e-06
-1.77843e-05
-5.58046e-05
2.01227e-05
5.96e-06
5.0582e-05
6.31156e-05
-6.58253e-05
8.14188e-05
-4.32237e-05
-2.44332e-05
2.67205e-05
4.39445e-06
9.56794e-06
7.6557e-06
4.39049e-06
-4.22162e-05
2.17024e-05
1.01277e-05
-1.56355e-05
-7.88147e-05
-2.79716e-05
-7.3316e-06
2.62833e-05
6.22845e-06
2.38395e-05
-8.04127e-06
5.26158e-05
3.0096e-05
-3.07956e-05
-8.68588e-05
1.14747e-05
3.87329e-05
1.11612e-05
-2.85617e-05
-9.12533e-06
-2.48151e-06
2.21188e-05
-3.22959e-06
2.53442e-05
2.25464e-05
3.20973e-05
-2.08742e-05
-3.06242e-06
6.05569e-06
-3.41411e-06
3.49667e-05
-2.44871e-05
5.34734e-05
1.96628e-05
1.27887e-05
-1.15689e-05
2.92533e-05
2.8708e-06
3.39589e-05
-1.87163e-05
-2.8864e-06
-6.90412e-05
2.46679e-05
-5.03904e-06
-1.2684e-05
2.05983e-05
-2.63402e-05
-2.66195e-06
-3.02475e-05
-7.38932e-05
-1.16541e-05
0.000124286
-9.6718e-05
2.30569e-05
4.08881e-05
1.12082e-05
1.89698e-05
2.29746e-05
-6.50397e-05
-1.8556e-05
-3.58945e-05
9.88785e-06
-2.25082e-05
-0.00011462
5.0644e-05
-0.000120174
-5.21551e-05
0.000129995
-2.85544e-05
-3.29314e-05
1.39811e-05
-3.08815e-06
-4.5842e-06
-6.87178e-05
5.01284e-07
2.54065e-05
-3.0681e-05
-4.83699e-05
-2.09832e-05
3.77459e-05
3.99074e-05
1.0991e-05
-3.37753e-05
2.43067e-05
4.91918e-05
4.58608e-05
-7.13917e-05
-6.57425e-05
-4.48683e-05
5.14658e-05
2.45089e-06
-1.54739e-06
-6.96708e-05
3.4296e-07
-1.04245e-05
6.89412e-06
-2.29039e-05
-2.35566e-06
-3.06218e-05
3.27412e-05
-3.22645e-06
-1.0337e-05
-2.5257e-05
2.84621e-05
9.52235e-05
-3.02617e-05
3.21714e-05
4.4381e-05
-4.54083e-05
-0.000101101
-3.30766e-05
0.00011101
6.25444e-05
-5.28276e-05
-0.000107186
-1.18129e-05
6.85673e-05
3.46114e-05
-5.40469e-05
-5.21373e-05
4.75177e-05
-4.06371e-05
-0.000119435
6.12031e-05
-1.81566e-05
-3.11728e-05
0.000105493
-4.54732e-05
-9.29437e-05
-5.38456e-05
9.50543e-06
-5.5499e-05
1.67232e-05
4.28152e-06
-7.23695e-05
6.52415e-06
4.59248e-05
6.77677e-06
-2.06649e-06
5.32228e-05
2.83379e-05
-3.75985e-05
-4.85514e-05
0.000104193
-1.62809e-05
-5.72787e-06
-2.96992e-05
-2.6722e-06
-4.58119e-05
8.22789e-06
-1.31113e-05
-4.38886e-05
-3.36707e-05
-5.49542e-05
4.80604e-05
-3.43903e-05
5.50938e-05
-3.26773e-05
-2.49934e-05
-9.60962e-06
3.26962e-05
-4.34383e-05
8.2174e-05
3.99048e-06
1.01069e-05
-2.64166e-05
-1.68534e-06
5.18311e-05
-5.05241e-05
7.65342e-05
-2.69968e-05
-2.84484e-05
5.25278e-06
1.91291e-05
5.7527e-05
-1.5507e-05
1.41484e-05
1.54792e-05
9.67545e-05
-2.60593e-05
2.79769e-06
-6.86488e-05
-4.36441e-06
5.35522e-06
-6.23055e-07
-1.12276e-05
2.76112e-05
-7.06452e-05
2.38864e-05
3.64637e-05
-5.86093e-06
-1.47326e-05
5.85358e-05
-1.46404e-06
5.05708e-07
-8.36374e-06
-6.6882e-05
-7.45826e-06
-5.66775e-05
5.49143e-05
-1.55683e-05
-6.51167e-05
1.93968e-05
-2.50088e-05
1.49547e-05
4.44495e-05
-8.87865e-06
-5.64918e-05
-7.07044e-05
-8.34139e-06
-2.963e-05
-2.15252e-06
-1.8321e-05
-1.89291e-06
-0.000102778
8.74826e-06
3.24817e-05
3.07966e-05
-0.000103662
-3.6156e-05
2.02424e-05
8.39116e-05
4.75231e-06
-1.31454e-05
3.19697e-05
7.14674e-07
-3.71365e-05
-7.51379e-05
-6.92115e-05
-2.21236e-06
-7.09702e-05
1.36707e-06
-4.37517e-05
5.2101e-05
-3.20335e-05
-2.11226e-05
9.38238e-06
-1.06043e-06
4.85103e-06
-2.59299e-05
5.72979e-05
-2.03841e-05
4.02208e-05
1.71226e-05
-4.36108e-05
4.79142e-06
-4.09902e-05
-3.49595e-07
2.30947e-05
-3.31624e-05
1.34484e-05
1.23588e-05
-2.61039e-05
-4.6381e-05
1.17684e-05
-4.40205e-05
0.000100773
4.16173e-05
5.9576e-05
5.72717e-06
3.63577e-06
3.72167e-05
-2.83874e-05
-2.65323e-05
-3.87037e-05
-3.32443e-05
-2.94507e-06
-4.8338e-06
-7.42385e-05
-9.2118e-05
-4.12922e-05
9.36037e-05
1.79688e-05
2.46142e-05
5.07897e-05
-3.9092e-05
-4.86935e-05
-6.07775e-05
2.91872e-05
-7.01525e-05
2.39771e-05
5.71006e-05
1.4381e-05
-8.54445e-05
6.48923e-05
5.64114e-06
1.15006e-05
-0.000120716
5.33741e-05
7.36078e-05
5.39096e-06
1.38736e-05
1.1841e-05
-9.6513e-06
3.66953e-05
-3.03433e-05
4.7182e-05
6.17241e-05
-4.68129e-06
-4.0433e-05
-2.984e-05
4.83415e-06
-1.19174e-06
4.36946e-05
-1.84961e-06
-1.13775e-05
-1.70611e-05
7.82481e-05
-4.5842e-06
1.79143e-05
-3.62854e-05
-7.78637e-05
7.38348e-05
-9.19305e-05
-5.20819e-06
2.09287e-05
2.30595e-06
7.05887e-05
3.83814e-05
7.42124e-06
5.50142e-05
-1.01442e-05
4.60939e-05
-1.68374e-05
-5.88747e-05
-4.91898e-05
5.1422e-05
5.45876e-05
-1.98529e-05
5.81008e-05
3.02015e-05
1.38807e-05
2.24961e-05
6.25567e-05
6.90168e-06
-8.80078e-05
-1.34255e-05
-5.00772e-06
4.87005e-05
5.9925e-05
6.30913e-05
1.42644e-06
2.14423e-05
-2.66379e-05
-9.90392e-06
-6.2205e-05
-1.60284e-05
3.25949e-05
-3.85357e-05
-1.90414e-05
5.31536e-05
-2.28162e-05
1.54097e-05
-4.23559e-05
-5.64847e-07
-5.11481e-05
-1.07914e-05
-0.000114606
2.06346e-05
1.91703e-05
7.28536e-05
2.73271e-05
-4.94907e-05
5.05785e-05
5.27872e-05
6.41993e-05
-7.99063e-06
4.43971e-05
-4.86517e-05
-2.5887e-05
-3.12888e-05
9.76643e-05
-4.46026e-05
-4.87097e-05
2.70451e-05
-5.04589e-05
1.36552e-05
-9.01835e-05
-0.000131356
6.04799e-05
5.67493e-05
-1.70096e-05
2.47727e-05
-9.10787e-06
5.16701e-05
-8.06586e-05
3.82916e-05
3.78339e-05
1.5907e-05
-7.97515e-06
-6.65546e-06
3.57419e-05
3.13772e-05
-9.32617e-05
-4.72958e-05
-9.38079e-05
-4.97693e-05
6.84743e-05
-3.54396e-05
9.14524e-06
-3.66229e-05
3.87214e-05
1.69341e-05
4.47609e-05
-5.4049e-05
2.94937e-05
6.61317e-05
1.22408e-05
-6.64293e-05
1.13389e-06
1.48169e-05
-1.36934e-05
6.08948e-05
-9.09087e-07
7.89306e-05
9.09704e-06
5.26161e-05
-9.66366e-05
3.41132e-05
6.60529e-06
-1.27819e-05
-4.43455e-05
-2.06708e-05
3.15055e-06
-9.30508e-07
-6.30612e-05
-0.000100799
-4.15874e-05
-9.15084e-05
-4.81866e-05
5.62918e-05
-1.52455e-05
-5.22906e-05
-2.41199e-05
-1.08297e-05
-4.57695e-05
-4.23092e-05
1.19056e-05
2.8361e-05
-1.41363e-05
-5.28246e-05
-6.13477e-05
1.77324e-05
1.07329e-05
-2.08274e-05
5.96306e-05
1.79105e-06
2.51199e-05
-2.36356e-05
5.88673e-05
3.18958e-05
4.76108e-05
-7.31893e-05
7.2247e-05
-0.000100922
-6.24103e-06
6.49309e-05
8.48889e-06
3.23071e-05
-3.30701e-06
-4.32205e-05
2.3779e-06
1.99971e-05
-1.27293e-05
9.59379e-06
3.61399e-05
2.75427e-05
6.92141e-05
-2.724e-06
-6.32234e-05
-6.1458e-06
-7.61054e-06
-1.02117e-05
4.45034e-05
5.20074e-06
2.67309e-05
-6.62974e-06
-4.79864e-06
-2.94803e-05
1.43549e-05
5.68968e-06
6.79196e-05
9.01206e-06
3.43912e-05
1.84249e-05
1.29039e-05
-4.46518e-05
3.45933e-05
3.36546e-05
1.9382e-06
-1.88097e-05
4.46872e-05
-5.23893e-05
6.75364e-05
7.74644e-05
6.37164e-06
8.13844e-05
-3.18104e-05
2.20669e-05
-1.73561e-05
-2.87807e-05
-6.86583e-05
1.19231e-05
2.47918e-05
1.23703e-05
-3.48676e-05
2.16782e-05
-2.20749e-05
-3.52529e-06
1.23349e-05
1.70944e-06
2.97128e-05
-6.88562e-05
-1.33733e-05
9.18958e-05
-3.43515e-05
1.47285e-05
-1.23637e-05
4.94563e-05
2.42065e-05
-4.44687e-05
5.05937e-05
0.000106778
9.66933e-05
6.52509e-05
8.89762e-07
-7.20681e-06
-1.14564e-05
6.66904e-05
-5.448e-06
4.01794e-05
-2.33977e-05
4.17561e-05
-3.41277e-05
-2.13978e-05
6.28131e-06
-2.62639e-05
3.58212e-05
-8.93137e-05
4.69462e-05
-3.57553e-05
3.30254e-05
2.34642e-05
-9.97119e-05
2.21337e-05
3.57013e-05
-1.87466e-05
2.13259e-05
-6.78235e-05
2.71616e-05
-5.16977e-05
5.68146e-05
4.88444e-05
-1.74806e-05
3.80412e-05
4.54163e-05
1.17874e-05
-8.37981e-06
2.07493e-05
-2.05643e-05
5.28254e-05
-7.57063e-05
-4.26277e-05
-7.67247e-06
2.04989e-05
-1.54359e-05
-3.12331e-05
1.17398e-05
6.21653e-05
4.88078e-05
4.33601e-06
-0.00012757
-5.02239e-05
-6.86675e-05
-6.60997e-05
3.09141e-05
7.61505e-05
-7.01353e-05
-7.03032e-06
9.28505e-06
4.82403e-05
3.83996e-06
8.47282e-06
-6.75763e-05
-1.85831e-05
1.21736e-05
-8.66805e-06
-3.19522e-05
-1.42828e-05
3.18349e-06
7.33009e-06
1.8241e-05
2.56518e-05
-6.78836e-05
-4.71412e-06
3.49282e-05
-5.05327e-05
1.0794e-05
-1.50143e-05
-1.63054e-05
-2.95395e-05
9.53889e-05
2.63903e-05
-1.76691e-05
-2.15019e-05
-1.27994e-05
8.03254e-06
-1.35815e-05
2.63907e-05
-7.18562e-06
-1.90849e-05
2.17276e-05
5.39322e-05
-9.03429e-05
5.79042e-05
-1.44776e-05
-1.46052e-05
-3.83223e-05
-4.54386e-05
2.61622e-05
5.74822e-05
2.07163e-05
1.80586e-05
2.61938e-05
-7.22159e-06
-2.65974e-05
2.38708e-05
-3.81797e-05
-3.29993e-05
2.86611e-05
4.19572e-06
5.34137e-05
-1.29028e-05
-4.54579e-06
9.10492e-05
1.6332e-05
1.6914e-05
-4.63275e-05
3.55741e-05
-3.91718e-05
2.29455e-05
1.72228e-05
3.0857e-06
6.8058e-05
6.72804e-05
-1.70231e-05
-7.54697e-06
4.55864e-05
-1.23878e-05
-6.61251e-06
0.000122596
3.2628e-05
1.82127e-05
2.49492e-05
-5.22544e-05
-2.22391e-05
-5.70166e-05
1.30478e-06
7.69016e-06
2.41777e-05
1.07716e-05
-5.2068e-05
1.76704e-05
6.44935e-05
-6.11881e-05
5.44069e-05
-4.49318e-05
-7.05202e-05
6.23113e-06
3.27922e-05
4.70879e-05
1.32713e-06
1.32957e-05
-7.78596e-05
-2.81828e-05
-6.89272e-06
0.000112601
3.6848e-05
-3.34257e-05
4.85628e-05
3.18346e-05
1.14888e-05
6.94902e-05
0.000133271
-7.38588e-05
-4.20369e-05
-1.68968e-05
2.04112e-05
8.13254e-06
-1.95537e-05
3.47553e-05
5.05913e-05
-6.30395e-05
-4.22685e-05
1.79633e-05
5.70342e-05
-6.66827e-07
2.83975e-05
-3.47799e-05
-8.23158e-05
-3.16931e-05
-5.5102e-05
-1.69482e-05
6.43997e-05
-5.57769e-05
5.25212e-05
-0.000112341
-7.1065e-05
-1.52232e-05
-1.60271e-05
-3.59295e-05
5.28326e-05
4.40273e-05
-4.75487e-06
-6.05781e-05
-2.03251e-05
1.72127e-05
2.40912e-05
-2.15004e-05
-3.80279e-05
1.8421e-05
-5.2297e-05
-1.48043e-05
-9.04263e-05
-1.86139e-05
-1.40986e-05
0.000121308
-2.54697e-05
5.25204e-05
3.79474e-05
3.1194e-05
-3.85309e-05
-5.10248e-06
-4.49665e-05
2.62952e-05
1.12428e-05
-1.86055e-05
1.74429e-05
-3.76214e-05
8.71124e-06
-3.17954e-05
7.14648e-05
-7.47017e-05
0.000101809
5.1964e-05
3.18055e-05
1.94155e-05
4.63661e-05
-3.00433e-06
1.62399e-05
7.99991e-05
3.6757e-06
-1.37994e-05
-5.21087e-05
-5.62188e-05
2.6822e-05
-3.78025e-05
-4.78231e-05
2.88631e-05
-2.68994e-05
-1.16545e-05
-5.02806e-05
3.10761e-05
-2.00591e-05
3.8109e-05
-8.71744e-05
-4.69047e-05
1.67185e-05
4.92437e-05
9.12789e-06
1.42597e-06
-6.69414e-05
-7.27304e-05
-1.43617e-05
-9.74466e-06
-1.56981e-05
2.67378e-05
-9.21227e-05
-5.88646e-05
-1.25875e-05
5.10602e-05
-8.97488e-05
7.86018e-05
1.30901e-05
1.51685e-05
-0.000114672
-4.19717e-05
1.06477e-05
8.84158e-05
-6.75349e-06
-6.9309e-06
1.08089e-05
-9.15197e-05
-1.49587e-05
1.0779e-05
5.18088e-05
-3.28289e-05
4.25935e-05
9.43034e-06
7.8592e-07
4.03603e-05
-3.83519e-06
2.66727e-05
-2.21876e-05
6.11413e-07
2.16463e-06
1.83086e-05
-2.01631e-05
-7.52346e-05
-8.20155e-05
-4.08834e-05
3.06887e-05
3.11451e-05
-1.76039e-05
-1.14895e-05
3.87501e-05
9.27411e-06
1.17538e-05
-4.44876e-05
-5.27484e-05
-4.26525e-05
9.60722e-05
-3.91061e-05
-6.17565e-05
-4.5125e-05
4.72064e-06
-4.15778e-05
-1.74786e-06
2.5766e-05
4.8114e-05
-3.50771e-05
2.89144e-05
3.42632e-05
2.19487e-05
-2.03147e-05
-2.84293e-05
2.95845e-05
6.2326e-05
1.81496e-05
-1.77093e-05
-4.22895e-05
-3.51795e-06
6.32224e-05
3.54683e-06
7.63219e-06
-5.29387e-06
1.01696e-05
2.74985e-05
2.91362e-05
-2.6076e-05
-5.974e-05
8.67877e-05
3.29312e-05
-1.45722e-05
-1.42369e-05
5.72905e-05
3.84287e-06
9.81886e-05
0.000121367
-2.85936e-05
2.49973e-05
7.87142e-06
-1.86716e-05
-1.70149e-05
-7.3237e-05
0.00011208
-1.25973e-05
-6.01783e-05
7.86246e-06
3.08845e-05
9.78343e-06
7.84115e-06
1.7136e-05
4.8778e-08
-2.67222e-05
-2.56813e-05
-4.1337e-05
-4.55834e-05
-1.7624e-05
-7.76537e-06
-4.82691e-05
7.13975e-05
1.64243e-05
3.01739e-05
-3.19595e-05
1.39847e-05
-1.39404e-05
-1.55892e-05
4.47617e-06
-1.65857e-05
8.27656e-05
5.56017e-05
5.67269e-06
3.54114e-05
2.86254e-06
-1.63057e-05
2.07493e-05
9.6322e-06
-1.4501e-05
-4.88878e-05
-4.07479e-05
-9.69216e-06
4.12582e-05
-2.15806e-05
-3.41526e-05
5.64969e-05
-1.37321e-05
-5.04195e-05
3.84742e-05
-2.33626e-05
-1.19605e-06
-5.9447e-05
5.95208e-06
6.40077e-05
-7.39724e-05
-2.23716e-05
-4.28839e-06
-7.43158e-05
-1.58095e-05
5.60065e-05
-2.4102e-05
5.20153e-05
4.58728e-05
-3.16428e-05
0.000122277
2.89967e-05
1.20704e-05
-2.74089e-05
-3.44684e-05
-3.20197e-05
5.98455e-05
4.27905e-05
-2.54267e-05
-1.62856e-05
4.25266e-05
4.55986e-05
-7.08047e-05
-4.5384e-05
-1.75915e-05
6.00137e-05
3.70812e-05
4.36977e-05
-7.64523e-06
2.17551e-05
1.48435e-05
1.47811e-05
3.49524e-05
1.44988e-05
-7.1735e-05
5.90794e-05
3.93526e-05
-1.6212e-05
4.74531e-05
-1.8456e-05
-3.84232e-05
8.46095e-05
5.78985e-05
5.29928e-05
-2.82949e-05
-1.4026e-05
-3.38175e-06
6.56868e-05
1.70158e-05
1.81664e-05
-1.45184e-05
-3.22158e-05
8.30204e-06
5.70649e-05
3.7209e-05
6.89619e-05
3.92866e-05
3.07863e-05
-1.59345e-05
4.17496e-05
8.47317e-06
-3.21828e-05
-1.07549e-05
-1.45922e-05
5.3932e-05
1.21885e-05
2.11241e-05
-2.64746e-05
1.12992e-05
-2.39079e-05
-1.44513e-05
1.09982e-05
-7.73533e-06
4.69049e-06
1.68592e-05
6.6706e-05
1.5799e-05
-0.000107579
-8.24992e-05
6.52252e-06
-5.85075e-05
5.17319e-05
1.84864e-05
1.66777e-05
-7.07684e-05
5.68491e-06
-1.8623e-05
-4.33428e-05
5.83278e-05
-4.15354e-05
-7.76736e-05
-1.33209e-05
-3.74748e-05
-1.10036e-06
5.06305e-05
3.43445e-05
5.214e-05
2.95318e-05
4.71446e-05
-2.02376e-05
0.000134812
5.51657e-05
-3.82708e-05
-1.12217e-05
0.000111733
1.12795e-06
-1.38339e-05
-2.07325e-05
-1.0534e-05
5.75127e-06
2.51086e-05
-6.47184e-05
1.22236e-06
0.00011825
2.02318e-05
-6.96784e-05
-8.34579e-05
9.0689e-05
4.29547e-05
-6.09942e-05
-2.33611e-06
4.5239e-06
-2.48619e-05
-7.49835e-05
-6.30086e-06
3.39792e-05
6.28872e-05
-2.65869e-06
-2.97541e-05
-6.67732e-05
-1.08313e-05
7.42334e-06
3.03183e-05
-1.26914e-05
1.26483e-05
-3.2475e-05
-1.54036e-05
4.65965e-05
-6.06989e-07
-7.33231e-05
-3.61167e-05
3.19349e-05
5.07119e-05
5.52044e-05
-3.86611e-05
-2.71017e-05
-1.73203e-06
4.00438e-05
-1.28831e-05
1.15242e-05
2.7538e-05
1.51002e-05
2.02362e-05
3.27814e-05
-0.000103584
-2.37206e-05
5.62995e-05
-3.56047e-05
-8.56419e-05
0.000101617
-2.90701e-05
2.15792e-05
-5.19509e-05
6.29365e-06
-5.95585e-05
3.80236e-06
-4.01154e-05
2.2179e-05
-9.73756e-06
6.35826e-05
-2.76128e-05
-2.5439e-05
9.06724e-05
-5.5589e-05
-3.51445e-05
1.47813e-05
-2.30941e-05
3.46847e-05
-4.10143e-05
-1.09317e-05
2.9841e-05
3.45649e-05
-4.78462e-05
-5.7874e-05
-3.72988e-05
3.58621e-05
-1.02357e-05
-1.76753e-05
3.83473e-05
4.55067e-06
-3.07262e-05
-6.31751e-05
6.19132e-06
-5.68882e-05
0.00012035
-0.000117729
-6.8087e-05
1.01873e-05
-1.02163e-05
2.82163e-05
-1.96024e-05
-6.25639e-06
3.50744e-05
9.93162e-06
-5.96486e-05
5.40577e-05
-2.97576e-05
-7.25384e-07
-9.39076e-06
-2.64803e-05
5.89001e-05
9.35842e-05
7.95013e-05
-1.68922e-05
-6.82934e-05
-7.77039e-05
4.75621e-05
-1.31736e-06
1.17447e-05
5.16311e-05
-6.31509e-05
2.21425e-05
3.45721e-05
-3.89627e-05
4.92733e-05
9.85316e-06
-2.7369e-05
-7.18011e-05
-2.20758e-06
9.41276e-06
5.68593e-05
-2.01396e-05
-8.62218e-06
7.08969e-06
9.57283e-07
-2.91981e-05
-3.67721e-05
9.86969e-07
-7.08317e-06
-7.77072e-05
4.07125e-05
2.28038e-05
-2.33527e-05
-2.82732e-05
6.35593e-06
-3.10615e-05
-2.37786e-05
5.87647e-05
3.77756e-05
-8.88545e-05
1.88742e-05
2.82153e-05
2.42072e-05
-1.97266e-05
3.13717e-05
2.6772e-05
-2.78912e-05
-1.14413e-05
4.39794e-05
-1.84721e-05
6.28969e-06
-9.41614e-06
3.67076e-05
-1.65384e-05
-2.21912e-05
-3.26346e-05
2.11542e-05
-9.05285e-05
-2.25266e-05
7.17817e-06
-1.67808e-05
-5.12953e-05
-4.15266e-05
3.02581e-05
1.87581e-05
1.34516e-05
6.79974e-05
0.000103678
-2.68692e-05
-5.62215e-05
-7.36793e-06
-8.72905e-06
-8.22055e-06
-0.000119192
3.07654e-05
9.97082e-05
7.93552e-05
2.3524e-05
2.89502e-06
3.23562e-05
6.61938e-06
-1.27404e-05
-1.12372e-05
3.50131e-06
6.08939e-05
-6.73521e-06
5.99329e-05
-9.1081e-06
-4.93438e-05
-1.2501e-05
-1.79211e-05
3.41785e-05
-3.37973e-05
7.39552e-06
5.94542e-05
0.000102923
1.58965e-05
2.07394e-06
6.60841e-05
-5.49529e-05
-6.422e-05
4.83589e-06
5.86053e-05
-3.53627e-05
-0.000113618
-3.21864e-05
8.25222e-06
3.0373e-05
4.09503e-06
1.25875e-05
-2.57913e-05
4.03007e-06
-1.99422e-05
-0.000115459
-8.30321e-06
2.34318e-05
1.67678e-05
-9.89973e-06
-1.77945e-05
3.41061e-05
5.38377e-05
-8.89879e-07
-3.26859e-05
-1.44828e-05
1.08392e-05
2.86293e-05
1.41955e-05
-1.13213e-05
4.36339e-05
-9.70042e-06
4.36598e-05
-6.26023e-06
-6.49587e-05
8.33402e-05
7.37386e-06
-2.33591e-05
-5.29963e-05
8.21892e-06
-7.67079e-05
-5.47341e-05
1.69982e-05
-2.35285e-05
6.93039e-05
-5.89248e-05
-1.58965e-05
-3.79654e-06
-4.36555e-05
1.75007e-06
6.90925e-06
-1.56336e-05
-1.26814e-05
-6.31367e-06
-2.87468e-05
6.35841e-05
-1.27358e-05
2.98875e-05
-1.94593e-05
0.00010666
-6.87314e-05
2.64298e-06
7.9783e-05
-7.28987e-05
-2.11627e-05
-1.82888e-06
-5.65441e-06
-3.07194e-05
-1.66008e-07
6.13109e-05
-4.53601e-05
-3.93717e-06
2.74234e-05
5.10012e-05
6.30191e-06
2.15231e-05
-5.93148e-05
-4.52381e-05
-4.56916e-05
-4.3974e-05
-2.38917e-05
-5.03431e-05
-2.24272e-05
-6.28907e-05
1.11944e-05
0.000117077
1.08846e-05
1.60339e-06
7.1153e-06
-1.24832e-05
-9.79604e-05
1.17276e-05
-2.4335e-05
-6.52864e-05
-4.5734e-05
9.77499e-05
-2.8451e-05
2.46852e-05
2.89711e-05
-3.39504e-05
9.1926e-05
-5.06383e-05
-3.13991e-05
4.18164e-07
2.26258e-05
5.23934e-05
-4.63506e-05
3.01888e-06
-7.25874e-05
3.62422e-05
4.538e-05
5.10279e-05
4.96124e-05
1.14617e-05
6.31448e-06
1.38574e-05
1.41433e-06
1.35633e-05
-5.94299e-05
-5.26095e-05
-3.14449e-05
3.68985e-05
-1.13051e-06
4.39386e-06
1.65979e-05
1.01099e-05
-4.56736e-05
-5.6707e-05
-2.16054e-05
3.75393e-06
3.02102e-05
2.47177e-05
-3.7055e-05
-4.68158e-05
-8.03269e-05
-3.89206e-05
8.46452e-05
4.35198e-05
1.98977e-05
-8.17538e-06
-6.95826e-06
-5.38764e-05
3.5844e-05
-6.18506e-05
7.90427e-05
-1.59481e-05
-3.99174e-05
-6.26175e-05
3.51215e-05
5.15331e-05
1.97033e-06
-3.47116e-06
-9.94909e-06
5.45722e-05
-4.3594e-05
-3.20029e-05
3.58506e-05
-2.33701e-05
-7.1933e-06
3.16269e-05
-2.36781e-05
4.79086e-05
6.11595e-05
-1.50183e-05
5.83358e-05
-1.60112e-05
-5.55504e-05
-4.1118e-05
3.92948e-05
8.73669e-05
-9.01881e-06
2.39068e-05
5.31238e-05
-2.11783e-06
3.75919e-05
-6.1114e-05
-5.37821e-05
4.75651e-05
-2.97432e-05
-7.41596e-05
-1.30141e-05
3.82925e-06
-4.95902e-05
-1.00632e-05
1.48059e-05
3.36731e-06
-4.77557e-05
-3.26612e-05
4.77966e-06
4.4096e-05
4.04312e-05
-4.65781e-05
-4.65791e-05
9.95398e-06
6.58103e-05
1.77751e-05
-1.76014e-05
-0.000102061
4.74714e-05
-2.01666e-05
-7.77573e-06
-8.79914e-06
4.50329e-05
-5.59166e-06
-5.70054e-05
-1.93106e-05
-3.39665e-05
4.75908e-05
2.16509e-05
-2.22095e-05
-2.47784e-05
-2.54156e-05
-5.8905e-06
-1.15656e-05
-4.13181e-05
-4.0236e-05
1.20618e-06
-4.48264e-05
2.04254e-05
3.38082e-06
-2.82918e-05
3.01643e-05
9.34838e-06
-6.71307e-05
-4.0574e-05
7.0933e-05
-3.39553e-05
-2.67513e-05
2.17737e-05
1.56362e-05
1.44395e-05
-8.90158e-06
-1.19936e-05
1.44326e-05
8.70285e-05
-9.69972e-07
1.24228e-05
-5.59276e-05
-1.92772e-05
3.90809e-05
3.06952e-06
-4.05498e-05
7.56606e-06
6.7285e-05
3.94984e-05
-7.47538e-05
-3.48646e-05
2.46889e-05
-5.16152e-05
3.76755e-06
-4.0855e-05
-1.83192e-05
8.32831e-05
-3.53502e-05
-3.56361e-05
-9.10182e-06
-2.37038e-05
-7.61582e-05
-4.31736e-05
-3.44523e-05
3.03321e-05
-5.932e-05
-4.43425e-05
-1.38481e-05
2.80145e-05
4.43453e-05
7.11228e-06
-4.18513e-07
-3.37961e-05
5.63178e-05
4.62115e-05
-7.51622e-05
0.000106831
-4.85462e-05
-1.38161e-05
-8.4145e-07
-1.47606e-05