# vtk DataFile Version 1.0
Net Charge Density
ASCII
DATASET STRUCTURED_POINTS
DIMENSIONS 256 128 1
ORIGIN 0 0 0
SPACING 0.15625 0.15625 1
POINT_DATA 32768
SCALARS rhonet float
LOOKUP_TABLE default
-3.89642e-06
-9.51276e-05
0.000144792
9.63218e-05
3.56843e-05
0.000120451
-0.000118445
9.18582e-05
0.000154216
2.28995e-05
-3.75605e-05
0.000108725
0.00010382
7.94455e-05
0.000109346
4.99606e-05
8.7743e-05
0.000140235
4.0588e-05
-6.79102e-05
-6.40715e-06
0.000141859
0.000144767
4.77824e-05
3.72683e-05
2.0743e-05
7.7422e-05
9.05889e-05
-1.35221e-05
-7.27427e-05
5.23026e-05
3.97237e-05
4.3669e-05
6.90081e-05
1.24413e-05
0.000171713
1.68073e-05
7.28725e-05
7.73575e-05
-5.53066e-06
2.29324e-05
6.83242e-06
0.000136404
9.39813e-05
2.09392e-05
1.8683e-05
-3.16133e-05
6.95544e-05
0.000116213
7.88722e-05
-1.20072e-05
2.49781e-05
8.34425e-05
0.000148995
3.55957e-05
1.75041e-05
0.000151011
-5.17473e-05
5.67792e-06
7.16955e-05
5.02799e-05
6.06019e-05
7.16816e-06
8.01802e-05
8.22489e-05
-8.03827e-05
4.41819e-05
0.000136175
4.09955e-05
4.82835e-05
7.92334e-05
3.67112e-05
-2.69156e-05
4.96677e-05
-1.15135e-07
5.11551e-05
4.20864e-05
-3.8308e-05
9.21616e-05
0.000106615
8.71842e-05
2.54086e-05
7.49617e-05
0.000101106
4.54686e-05
-4.48001e-06
-1.66909e-05
6.70485e-05
0.000119669
-2.34874e-05
9.00028e-05
-1.47952e-05
-3.90528e-05
-6.21448e-06
-8.99172e-05
5.22718e-05
0.000157961
2.40975e-05
9.16884e-05
-2.49445e-05
0.000157723
9.09189e-05
-3.16906e-06
9.47254e-05
3.90382e-05
0.000130971
-2.58326e-07
-6.85496e-05
2.66253e-06
7.39994e-05
0.000133421
5.79279e-05
2.02988e-05
3.31154e-05
8.04212e-05
4.36597e-05
1.22656e-05
7.49691e-05
5.09602e-05
4.32277e-05
-3.98804e-05
-3.45634e-05
4.04445e-05
2.44897e-05
0.00011572
6.60875e-05
1.82547e-05
8.131e-05
1.99641e-05
-1.88102e-05
0.000119796
9.26161e-05
-2.24449e-06
3.77486e-05
2.03245e-05
6.79668e-06
4.46088e-05
-3.19157e-05
4.68963e-05
-1.15026e-05
-4.98404e-05
2.32955e-05
2.09621e-05
0.000160761
9.88226e-05
2.06358e-06
0.000137836
1.15242e-05
-3.11243e-05
0.000132419
1.78268e-05
2.91321e-05
0.000108428
-8.34581e-06
3.45041e-05
4.32306e-05
5.74626e-06
3.42712e-05
-5.27618e-06
1.75425e-05
7.67779e-05
2.50086e-05
0.000112709
-2.20696e-05
3.25855e-05
2.55231e-05
5.84618e-05
-6.12719e-05
0.000105448
0.000137295
2.50292e-05
4.32234e-05
7.45821e-05
0.000111579
-2.02683e-05
-8.13382e-06
8.72926e-05
-8.23216e-05
1.15581e-05
3.31809e-05
8.87687e-05
-7.06e-05
-3.18111e-05
5.65394e-06
1.04987e-05
7.98536e-05
4.14198e-05
7.20922e-05
0.000102554
7.46856e-05
2.4884e-05
0.000198125
8.16121e-05
-6.56993e-05
6.24196e-05
0.000201229
4.75221e-05
8.32753e-05
7.86672e-05
-1.6309e-05
5.95986e-05
0.000149169
4.39021e-05
3.83358e-05
-1.00756e-05
6.97707e-05
-5.98875e-05
5.34233e-05
6.86802e-05
8.57905e-05
6.81023e-05
0.000137439
0.000106097
-2.40521e-05
0.000111081
-0.000131281
0.000102691
9.90945e-05
-5.28728e-05
-3.79207e-05
8.69744e-05
0.000114877
0.000176991
3.40521e-05
7.95296e-05
5.67446e-05
-3.69141e-05
-1.51402e-05
8.69032e-05
6.86068e-05
6.22834e-06
4.16541e-05
2.3638e-05
2.60693e-05
0.000121307
-3.55705e-05
-2.05771e-05
2.75006e-05
5.94514e-05
8.97981e-06
1.84993e-05
8.66941e-05
-5.82667e-05
-3.07336e-07
2.65902e-05
-1.4409e-05
-2.2196e-05
-3.95465e-05
0.000128655
-4.29607e-06
2.10482e-05
-3.8513e-05
0.000102293
2.14379e-05
2.40519e-05
4.18613e-05
-0.000104899
2.47044e-05
-6.30287e-05
-2.51194e-05
-2.38869e-05
5.12262e-05
-2.60446e-05
-7.57639e-05
4.98933e-05
-6.60466e-05
-4.28995e-05
2.33413e-05
-5.99084e-05
-8.02728e-05
3.00258e-06
-4.24264e-05
4.66232e-06
1.08909e-05
-2.15751e-05
-4.06103e-06
-5.82072e-05
-6.74941e-05
-0.000106138
-1.79202e-05
-2.00454e-05
-5.72717e-05
-2.52763e-05
7.73021e-06
-3.07411e-05
-8.53873e-05
-3.5389e-05
-8.3613e-06
2.74424e-05
-7.95685e-05
-6.67484e-05
2.31336e-05
-0.000103178
-3.37885e-05
1.98339e-05
-8.20329e-05
-5.15863e-05
-4.38411e-05
8.67271e-06
3.55999e-05
-2.47126e-05
4.87501e-06
-0.000112384
-3.15171e-05
3.88797e-05
-3.39411e-05
-6.56133e-05
-4.11931e-05
-3.17376e-05
2.98236e-05
-2.8532e-05
-3.54566e-05
-2.34864e-05
-0.00011611
1.48109e-05
-3.37936e-05
4.56301e-05
-5.12688e-05
-5.72853e-05
-3.73456e-05
-3.0147e-05
-6.05662e-05
-1.00288e-05
-7.96341e-05
-0.000109192
1.21045e-05
-4.39817e-05
9.01776e-06
-1.84354e-05
1.72416e-05
-5.13535e-05
-1.04338e-05
4.76099e-05
-2.5494e-05
5.74087e-05
2.163e-07
-3.24124e-05
-5.04444e-05
-8.22563e-05
2.8483e-05
2.4466e-05
-6.1695e-05
-0.000158637
-4.16979e-05
-6.50762e-08
-1.6914e-05
8.77341e-06
5.33124e-05
3.15602e-06
-1.07941e-05
2.47145e-05
-5.96547e-06
3.43231e-05
-2.73116e-05
-6.84732e-06
-1.89478e-06
-4.36432e-05
-0.000106617
-3.96519e-05
-2.96775e-05
-3.55596e-05
1.6422e-05
-5.91238e-05
-4.27188e-05
-1.0673e-06
-5.99981e-06
5.43522e-05
-3.54238e-05
-7.13794e-05
-7.13182e-05
4.01703e-05
1.1547e-05
-5.23512e-05
-1.11548e-05
9.64548e-06
3.18993e-05
-8.5775e-05
1.39618e-05
-6.13793e-05
-7.74162e-06
-3.48624e-05
-1.67099e-05
-4.55658e-05
-6.96029e-05
1.70245e-05
-4.88103e-05
-2.07968e-05
1.59815e-05
-1.05528e-05
-2.35452e-05
-1.24413e-05
-3.31047e-05
-4.60125e-05
-1.3358e-05
-4.22454e-05
-8.32323e-06
-5.94474e-05
-7.82583e-05
8.69739e-06
-2.01946e-06
-8.38252e-05
1.05491e-05
-3.22353e-05
-4.36765e-05
-0.000117681
-8.72533e-06
-3.99577e-05
-3.83074e-05
-7.16746e-05
9.37073e-06
3.00049e-05
-1.70405e-05
-2.39991e-05
-1.85624e-06
-5.11222e-05
-2.02567e-05
-8.13487e-05
-6.40946e-05
3.62425e-05
-8.02709e-05
-7.56362e-06
2.37457e-05
2.21169e-05
-5.27812e-05
-2.42516e-06
3.60706e-05
-9.46566e-05
1.02374e-05
-2.21478e-05
3.97029e-05
-4.13511e-05
-2.5548e-05
-5.70074e-06
3.04059e-05
-6.907e-05
-4.77677e-05
3.67507e-05
-4.79619e-06
2.05892e-06
-4.86561e-05
-0.000107547
-6.60247e-05
-2.66002e-05
-2.24798e-05
-9.33034e-06
-1.8857e-05
-0.00010145
6.32275e-06
3.69591e-05
4.61098e-06
-1.08493e-05
-2.36548e-05
-8.50843e-05
-3.90906e-05
4.81105e-05
-6.9777e-06
-7.51882e-05
-6.46272e-05
-4.37894e-05
3.07565e-05
-5.53511e-05
1.83086e-06
-5.12167e-05
9.71673e-05
1.17978e-05
-4.14068e-05
-5.22413e-05
-4.83997e-05
-4.73992e-05
3.21247e-05
-3.50834e-05
-7.29868e-05
1.69827e-06
-2.53874e-05
-1.98884e-05
4.50527e-06
-1.73203e-05
7.05681e-05
5.70891e-05
-6.70663e-05
-3.48979e-05
-2.73385e-05
-7.02048e-05
-2.06064e-05
2.42672e-05
8.58863e-05
-8.70341e-05
6.9344e-06
-4.34536e-05
-3.627e-05
6.90324e-05
3.75879e-05
-6.27585e-05
-4.99166e-06
2.55418e-05
-5.1121e-05
2.26249e-05
-1.34831e-05
-4.80211e-05
-1.98237e-05
3.05474e-06
3.73246e-05
3.42679e-05
-1.23484e-05
-2.31676e-05
-0.000132199
-1.67289e-07
-7.60658e-06
5.12579e-05
-7.35291e-06
-7.36318e-05
5.01727e-06
-3.30424e-05
-1.9907e-06
5.00251e-05
-7.79796e-06
-2.33892e-05
-8.48004e-06
1.05414e-06
-1.92298e-05
7.13232e-05
-5.15231e-05
7.82229e-06
3.11628e-05
6.53437e-05
-4.67899e-05
-2.90641e-05
-1.14907e-05
-2.49564e-05
-9.3428e-05
-2.0482e-05
3.51593e-05
4.8863e-05
3.64082e-05
-1.6453e-05
3.77696e-05
6.14579e-05
-4.75245e-05
4.48449e-05
4.40085e-05
9.82312e-06
-5.10869e-05
1.23067e-05
2.34436e-05
7.04302e-05
4.96684e-05
-3.57146e-05
2.25288e-05
5.27326e-06
-2.51166e-05
4.80085e-05
3.40396e-05
2.11629e-05
-2.89194e-05
-7.34262e-05
2.16749e-05
3.48731e-05
1.42097e-06
-4.63354e-05
1.81724e-06
-1.6571e-05
5.22442e-05
1.92709e-05
-4.251e-05
-9.05942e-05
6.88422e-06
2.94285e-05
9.43244e-06
3.90757e-05
-4.01768e-05
2.79773e-05
-3.30702e-05
9.02759e-05
1.87058e-05
2.1936e-05
-2.38947e-05
3.89214e-05
7.95071e-05
-1.4304e-06
-1.07866e-05
-4.31227e-05
-5.63423e-05
3.65558e-05
5.6912e-06
-2.9766e-05
3.18504e-05
-3.75102e-05
-1.97683e-05
6.36962e-05
5.06415e-05
-4.80586e-05
-4.18766e-05
-9.31241e-06
-2.6356e-05
-1.33661e-05
5.09447e-05
7.4107e-05
-1.38807e-05
-5.52129e-05
-6.02384e-05
2.25474e-05
4.01654e-05
-3.56473e-05
4.60858e-05
6.04028e-05
1.00425e-05
-2.72855e-05
-6.8402e-05
1.03844e-05
-3.90662e-05
-6.67311e-05
1.89329e-05
-3.86648e-05
-7.26086e-05
1.55345e-05
3.4466e-05
-9.18296e-06
-2.52391e-05
3.49989e-05
6.7194e-05
-7.81415e-06
-2.3485e-05
1.90872e-05
-3.45567e-05
-3.24671e-06
3.17623e-05
-4.33623e-05
-4.44567e-05
-1.29163e-05
6.19072e-05
-1.54721e-05
-1.92428e-05
-9.34349e-07
1.07801e-05
-2.67864e-05
6.43285e-05
6.28876e-07
3.16114e-05
-3.45438e-05
-2.02106e-05
3.29814e-05
-8.92987e-06
-5.33779e-05
-6.58383e-05
-1.97741e-05
2.38314e-06
3.65475e-05
8.36793e-06
-1.87824e-06
1.48288e-05
-2.75738e-05
4.24776e-05
2.79525e-05
9.69111e-05
6.65833e-05
1.94266e-05
1.45665e-05
-1.36642e-05
5.90171e-05
5.77696e-05
-3.53303e-05
8.6556e-05
-1.88482e-05
-2.10223e-05
-5.39366e-05
1.12338e-05
-1.22987e-05
7.03161e-05
-1.07869e-05
6.14906e-06
5.7794e-05
3.47518e-05
-3.56393e-05
-5.85616e-06
4.38265e-05
2.99953e-05
1.48884e-05
3.09397e-06
-6.29965e-05
1.44138e-05
-9.34467e-05
4.10876e-05
-3.34164e-05
-7.2972e-05
6.78655e-06
-4.31373e-05
3.26068e-05
-5.40694e-05
-3.51889e-05
-7.38073e-06
-3.46784e-05
7.78143e-06
5.28588e-05
1.66984e-05
-1.61503e-06
7.61889e-05
-2.89618e-06
5.27899e-05
3.30998e-05
2.69054e-05
3.2012e-05
-4.14015e-05
-7.91214e-05
6.70389e-06
-3.71063e-05
3.38536e-07
3.12875e-05
2.55894e-05
4.62425e-05
-7.34441e-06
3.8557e-05
-1.82485e-05
8.60397e-05
-3.51759e-05
-2.4211e-05
-2.44786e-05
3.96882e-05
3.96369e-05
-5.59585e-06
-1.59818e-05
5.26489e-05
-3.12824e-05
-9.51299e-06
1.32091e-05
3.03081e-05
4.01442e-05
-6.21302e-05
6.55791e-06
-4.02806e-05
7.68164e-05
-2.30575e-05
2.42726e-06
-2.36235e-05
-7.6571e-06
1.05554e-06
-7.5846e-05
1.89051e-05
4.24923e-05
2.73308e-06
-4.68809e-05
-0.000111356
2.3297e-05
1.9283e-05
1.6694e-06
4.11418e-05
-1.26255e-05
3.11434e-06
-2.15395e-05
-7.41897e-05
3.57794e-05
1.81664e-05
-4.43208e-05
1.38056e-05
2.49413e-05
-1.40066e-05
-5.45266e-05
-1.59673e-05
4.84833e-05
-4.49922e-06
-0.000139603
5.79739e-05
3.08061e-05
0.000100899
-3.72753e-05
3.82724e-05
1.96728e-05
-2.19455e-05
-3.16997e-05
-3.15025e-05
5.79789e-05
8.84748e-05
-9.06771e-06
-5.99883e-05
9.21858e-06
8.46421e-06
-1.89757e-08
-2.07851e-05
-3.90375e-05
0.000130274
-3.43216e-05
-4.70512e-05
5.37111e-05
-2.79665e-06
2.82307e-06
-3.7919e-05
-6.05409e-05
4.75423e-05
4.8436e-05
-1.7537e-05
3.74635e-05
-5.19098e-05
4.18178e-05
3.39503e-05
-6.99728e-05
2.73664e-05
3.8806e-05
1.67813e-05
-5.26785e-05
6.28689e-05
-2.19624e-05
-4.31015e-05
-7.40332e-06
-2.66786e-05
4.25472e-05
3.65009e-06
2.7573e-05
-4.7388e-05
-6.43753e-06
3.03094e-05
-2.26304e-05
-8.19346e-05
-4.95824e-05
1.36236e-05
3.36369e-05
4.53521e-05
-3.78171e-05
6.72048e-05
-2.02061e-05
-6.23041e-05
4.74695e-05
4.62763e-05
1.24059e-05
3.82881e-05
2.15034e-05
5.87141e-05
-6.50005e-05
-4.25661e-05
-1.34123e-05
4.39063e-05
4.787e-05
-2.23203e-05
-6.05176e-05
1.98325e-06
-2.43727e-06
-3.00119e-05
1.48918e-05
2.92053e-05
7.28874e-05
7.06639e-05
-3.5825e-05
-0.000140627
2.58455e-05
1.2035e-06
-2.88252e-05
-4.69699e-05
5.72429e-05
3.12583e-05
1.75562e-05
-0.000107817
-1.58472e-05
1.13321e-05
3.99519e-05
3.28135e-05
-4.30096e-05
3.20361e-05
3.74879e-05
-3.91933e-05
2.83305e-05
3.71941e-05
-1.3714e-05
3.56362e-05
-5.44158e-05
8.30446e-05
3.03243e-05
-1.94272e-05
-2.67292e-05
6.84278e-05
4.12179e-05
-2.91598e-05
3.35348e-05
3.92138e-05
3.68371e-05
-3.48371e-05
-2.81513e-05
1.41669e-05
3.52948e-05
-7.15663e-05
-2.16155e-05
4.60051e-05
3.6499e-05
2.3186e-05
-3.12359e-05
-7.1348e-05
2.25478e-05
-3.52728e-05
7.69856e-05
-4.16436e-05
-1.37861e-05
7.45142e-05
-5.40668e-05
4.00457e-06
-1.77845e-05
-5.58047e-05
2.01231e-05
5.95977e-06
5.05818e-05
6.31156e-05
-6.58256e-05
8.14189e-05
-4.32236e-05
-2.44336e-05
2.67199e-05
4.39433e-06
9.56818e-06
7.65524e-06
4.39084e-06
-4.22162e-05
2.1703e-05
1.01282e-05
-1.56355e-05
-7.88143e-05
-2.79713e-05
-7.33137e-06
2.62833e-05
6.22869e-06
2.38395e-05
-8.04127e-06
5.26162e-05
3.00964e-05
-3.07952e-05
-8.68591e-05
1.14746e-05
3.87332e-05
1.11607e-05
-2.85618e-05
-9.1251e-06
-2.48151e-06
2.2119e-05
-3.22948e-06
2.53447e-05
2.25464e-05
3.20966e-05
-2.08741e-05
-3.06207e-06
6.05534e-06
-3.41411e-06
3.49664e-05
-2.44871e-05
5.34742e-05
1.9663e-05
1.27882e-05
-1.15689e-05
2.92527e-05
2.87034e-06
3.39588e-05
-1.87164e-05
-2.8864e-06
-6.90413e-05
2.46682e-05
-5.03915e-06
-1.26838e-05
2.05981e-05
-2.63402e-05
-2.66195e-06
-3.02475e-05
-7.38932e-05
-1.16541e-05
0.000124287
-9.67176e-05
2.30569e-05
4.0888e-05
1.1208e-05
1.89699e-05
2.29746e-05
-6.50404e-05
-1.85566e-05
-3.58943e-05
9.88797e-06
-2.25083e-05
-0.00011462
5.06442e-05
-0.000120174
-5.21552e-05
0.000129995
-2.85548e-05
-3.29316e-05
1.39811e-05
-3.08745e-06
-4.58409e-06
-6.87178e-05
5.00819e-07
2.54065e-05
-3.06811e-05
-4.83703e-05
-2.09834e-05
3.77458e-05
3.99078e-05
1.09905e-05
-3.37758e-05
2.43065e-05
4.91926e-05
4.58609e-05
-7.1392e-05
-6.57423e-05
-4.48684e-05
5.14663e-05
2.45089e-06
-1.54716e-06
-6.96707e-05
3.41912e-07
-1.04239e-05
6.89423e-06
-2.29033e-05
-2.35508e-06
-3.06221e-05
3.27411e-05
-3.2268e-06
-1.03373e-05
-2.5257e-05
2.84624e-05
9.52231e-05
-3.02617e-05
3.21711e-05
4.43808e-05
-4.54086e-05
-0.000101101
-3.30769e-05
0.00011101
6.25444e-05
-5.2829e-05
-0.000107186
-1.18129e-05
6.85672e-05
3.46117e-05
-5.40467e-05
-5.21375e-05
4.7517e-05
-4.06373e-05
-0.000119436
6.12026e-05
-1.81564e-05
-3.11728e-05
0.000105493
-4.54731e-05
-9.29433e-05
-5.38455e-05
9.50531e-06
-5.54988e-05
1.67227e-05
4.28152e-06
-7.23697e-05
6.52485e-06
4.59249e-05
6.77735e-06
-2.06649e-06
5.32217e-05
2.83378e-05
-3.75985e-05
-4.85511e-05
0.000104193
-1.62804e-05
-5.72763e-06
-2.96999e-05
-2.67196e-06
-4.58122e-05
8.22754e-06
-1.31113e-05
-4.38881e-05
-3.36712e-05
-5.49544e-05
4.80601e-05
-3.43906e-05
5.50934e-05
-3.26775e-05
-2.49941e-05
-9.60904e-06
3.26965e-05
-4.3438e-05
8.21742e-05
3.99048e-06
1.01073e-05
-2.64163e-05
-1.68616e-06
5.18314e-05
-5.05236e-05
7.65341e-05
-2.69969e-05
-2.84482e-05
5.25347e-06
1.9129e-05
5.75265e-05
-1.55075e-05
1.41478e-05
1.54796e-05
9.67546e-05
-2.60586e-05
2.79711e-06
-6.86487e-05
-4.36441e-06
5.35557e-06
-6.22589e-07
-1.12274e-05
2.76114e-05
-7.06452e-05
2.38861e-05
3.64637e-05
-5.86105e-06
-1.47319e-05
5.85361e-05
-1.46357e-06
5.05126e-07
-8.36398e-06
-6.68822e-05
-7.4585e-06
-5.66774e-05
5.49142e-05
-1.55676e-05
-6.51168e-05
1.93971e-05
-2.50092e-05
1.49552e-05
4.44495e-05
-8.87865e-06
-5.64916e-05
-7.07044e-05
-8.34116e-06
-2.96299e-05
-2.15298e-06
-1.83217e-05
-1.89361e-06
-0.000102778
8.74826e-06
3.24815e-05
3.07963e-05
-0.000103662
-3.61559e-05
2.02426e-05
8.39119e-05
4.75266e-06
-1.31454e-05
3.19693e-05
7.14674e-07
-3.71372e-05
-7.51376e-05
-6.92119e-05
-2.21259e-06
-7.09702e-05
1.36695e-06
-4.37519e-05
5.21011e-05
-3.20335e-05
-2.11229e-05
9.38179e-06
-1.06101e-06
4.85172e-06
-2.59299e-05
5.72974e-05
-2.03841e-05
4.02209e-05
1.71229e-05
-4.36114e-05
4.79131e-06
-4.09901e-05
-3.49013e-07
2.30946e-05
-3.31624e-05
1.34479e-05
1.23588e-05
-2.6104e-05
-4.63817e-05
1.17688e-05
-4.40202e-05
0.000100773
4.16171e-05
5.95758e-05
5.72705e-06
3.63577e-06
3.72173e-05
-2.83873e-05
-2.65324e-05
-3.87036e-05
-3.3244e-05
-2.94531e-06
-4.8345e-06
-7.42386e-05
-9.21182e-05
-4.12925e-05
9.36043e-05
1.79686e-05
2.46144e-05
5.07896e-05
-3.9091e-05
-4.86935e-05
-6.07776e-05
2.91867e-05
-7.01526e-05
2.39771e-05
5.71007e-05
1.43813e-05
-8.54445e-05
6.48925e-05
5.64149e-06
1.15009e-05
-0.000120717
5.33737e-05
7.36077e-05
5.39189e-06
1.38734e-05
1.18413e-05
-9.6506e-06
3.66955e-05
-3.03434e-05
4.71817e-05
6.17247e-05
-4.68025e-06
-4.04322e-05
-2.98404e-05
4.83368e-06
-1.19233e-06
4.3695e-05
-1.84937e-06
-1.13773e-05
-1.70611e-05
7.82476e-05
-4.58374e-06
1.79145e-05
-3.62857e-05
-7.78637e-05
7.3835e-05
-9.19306e-05
-5.20831e-06
2.09283e-05
2.30619e-06
7.05888e-05
3.83815e-05
7.42101e-06
5.50144e-05
-1.01442e-05
4.60939e-05
-1.68376e-05
-5.88752e-05
-4.91898e-05
5.14216e-05
5.4588e-05
-1.9853e-05
5.81011e-05
3.02005e-05
1.3881e-05
2.24963e-05
6.25566e-05
6.9018e-06
-8.80079e-05
-1.34255e-05
-5.00749e-06
4.87003e-05
5.99249e-05
6.30916e-05
1.42655e-06
2.14431e-05
-2.6638e-05
-9.9038e-06
-6.22044e-05
-1.60285e-05
3.25944e-05
-3.8535e-05
-1.90418e-05
5.31537e-05
-2.28167e-05
1.54099e-05
-4.23556e-05
-5.64498e-07
-5.11482e-05
-1.07912e-05
-0.000114607
2.06344e-05
1.91702e-05
7.28534e-05
2.73276e-05
-4.94907e-05
5.05783e-05
5.27871e-05
6.41993e-05
-7.99028e-06
4.4397e-05
-4.86509e-05
-2.58868e-05
-3.12888e-05
9.76641e-05
-4.46021e-05
-4.87092e-05
2.70451e-05
-5.04586e-05
1.36554e-05
-9.01833e-05
-0.000131355
6.04799e-05
5.67492e-05
-1.70093e-05
2.47728e-05
-9.10833e-06
5.16705e-05
-8.06584e-05
3.82906e-05
3.78349e-05
1.5907e-05
-7.97585e-06
-6.65546e-06
3.57419e-05
3.1377e-05
-9.3261e-05
-4.72956e-05
-9.38079e-05
-4.97694e-05
6.84746e-05
-3.54387e-05
9.14559e-06
-3.66229e-05
3.87209e-05
1.69341e-05
4.47611e-05
-5.40491e-05
2.94936e-05
6.61317e-05
1.22408e-05
-6.64286e-05
1.13389e-06
1.48168e-05
-1.36936e-05
6.08943e-05
-9.0932e-07
7.89303e-05
9.09646e-06
5.26159e-05
-9.66367e-05
3.41135e-05
6.60471e-06
-1.27824e-05
-4.43455e-05
-2.06706e-05
3.15078e-06
-9.30973e-07
-6.30609e-05
-0.000100798
-4.15872e-05
-9.15087e-05
-4.81864e-05
5.62919e-05
-1.52455e-05
-5.22904e-05
-2.41196e-05
-1.0829e-05
-4.57698e-05
-4.23089e-05
1.19051e-05
2.83606e-05
-1.41364e-05
-5.28242e-05
-6.13477e-05
1.77326e-05
1.07329e-05
-2.08277e-05
5.9631e-05
1.79035e-06
2.51196e-05
-2.36356e-05
5.8868e-05
3.18948e-05
4.76108e-05
-7.31895e-05
7.22467e-05
-0.000100923
-6.24056e-06
6.49316e-05
8.48901e-06
3.23071e-05
-3.30643e-06
-4.32202e-05
2.37813e-06
1.99974e-05
-1.27291e-05
9.59332e-06
3.61401e-05
2.75427e-05
6.92134e-05
-2.72377e-06
-6.3224e-05
-6.1458e-06
-7.61065e-06
-1.02116e-05
4.45032e-05
5.20074e-06
2.67313e-05
-6.62962e-06
-4.79852e-06
-2.948e-05
1.43556e-05
5.68992e-06
6.79198e-05
9.01206e-06
3.43912e-05
1.84251e-05
1.29041e-05
-4.46523e-05
3.45934e-05
3.36549e-05
1.93866e-06
-1.88093e-05
4.46873e-05
-5.23893e-05
6.75366e-05
7.74651e-05
6.37153e-06
8.13848e-05
-3.1811e-05
2.20671e-05
-1.73564e-05
-2.87805e-05
-6.86577e-05
1.19234e-05
2.47911e-05
1.23708e-05
-3.48676e-05
2.16779e-05
-2.20749e-05
-3.52529e-06
1.23344e-05
1.70944e-06
2.97123e-05
-6.88569e-05
-1.3374e-05
9.18959e-05
-3.43513e-05
1.47277e-05
-1.23627e-05
4.94568e-05
2.42066e-05
-4.44679e-05
5.05934e-05
0.000106778
9.66932e-05
6.52509e-05
8.90228e-07
-7.20727e-06
-1.14563e-05
6.66907e-05
-5.44812e-06
4.01796e-05
-2.3397e-05
4.17562e-05
-3.41277e-05
-2.13978e-05
6.28061e-06
-2.62639e-05
3.58213e-05
-8.93141e-05
4.69467e-05
-3.57558e-05
3.30247e-05
2.34644e-05
-9.97119e-05
2.21342e-05
3.57014e-05
-1.87466e-05
2.13261e-05
-6.7823e-05
2.71616e-05
-5.16979e-05
5.68141e-05
4.8844e-05
-1.74805e-05
3.80408e-05
4.54166e-05
1.17879e-05
-8.37969e-06
2.07492e-05
-2.05644e-05
5.28251e-05
-7.57064e-05
-4.26266e-05
-7.67293e-06
2.04988e-05
-1.54354e-05
-3.12331e-05
1.17393e-05
6.21649e-05
4.88078e-05
4.33589e-06
-0.000127571
-5.02234e-05
-6.86676e-05
-6.6099e-05
3.09134e-05
7.61503e-05
-7.01355e-05
-7.03009e-06
9.28505e-06
4.82403e-05
3.83984e-06
8.47317e-06
-6.75762e-05
-1.85829e-05
1.21741e-05
-8.6677e-06
-3.19529e-05
-1.42829e-05
3.18349e-06
7.33079e-06
1.82404e-05
2.56514e-05
-6.78836e-05
-4.71459e-06
3.49286e-05
-5.05329e-05
1.07939e-05
-1.5015e-05
-1.6305e-05
-2.9539e-05
9.53889e-05
2.63904e-05
-1.76691e-05
-2.15019e-05
-1.27987e-05
8.03324e-06
-1.35812e-05
2.63904e-05
-7.18539e-06
-1.90841e-05
2.17274e-05
5.39325e-05
-9.03432e-05
5.7904e-05
-1.44776e-05
-1.46057e-05
-3.83225e-05
-4.54395e-05
2.61624e-05
5.74819e-05
2.07166e-05
1.80585e-05
2.61944e-05
-7.22171e-06
-2.65967e-05
2.38708e-05
-3.81796e-05
-3.29993e-05
2.86612e-05
4.19561e-06
5.34138e-05
-1.29023e-05
-4.54648e-06
9.10496e-05
1.63324e-05
1.69137e-05
-4.63274e-05
3.55743e-05
-3.91717e-05
2.29462e-05
1.72227e-05
3.0864e-06
6.80587e-05
6.72806e-05
-1.70231e-05
-7.54674e-06
4.55873e-05
-1.23873e-05
-6.61262e-06
0.000122597
3.26276e-05
1.82127e-05
2.49494e-05
-5.22535e-05
-2.22389e-05
-5.70165e-05
1.30455e-06
7.68993e-06
2.41783e-05
1.07719e-05
-5.20685e-05
1.76711e-05
6.44934e-05
-6.11886e-05
5.44069e-05
-4.49321e-05
-7.05197e-05
6.23101e-06
3.27921e-05
4.70873e-05
1.32748e-06
1.32953e-05
-7.78603e-05
-2.8183e-05
-6.89295e-06
0.000112601
3.68477e-05
-3.34259e-05
4.85627e-05
3.18345e-05
1.14887e-05
6.94892e-05
0.00013327
-7.38588e-05
-4.2037e-05
-1.68968e-05
2.04112e-05
8.13266e-06
-1.95543e-05
3.47551e-05
5.05915e-05
-6.30395e-05
-4.2269e-05
1.79625e-05
5.70347e-05
-6.66361e-07
2.83977e-05
-3.47798e-05
-8.23162e-05
-3.16929e-05
-5.51023e-05
-1.69481e-05
6.43993e-05
-5.57764e-05
5.25207e-05
-0.000112341
-7.10648e-05
-1.52239e-05
-1.60274e-05
-3.59302e-05
5.28323e-05
4.40278e-05
-4.75533e-06
-6.05782e-05
-2.03252e-05
1.72125e-05
2.40919e-05
-2.15002e-05
-3.80282e-05
1.84206e-05
-5.2297e-05
-1.48044e-05
-9.04261e-05
-1.86132e-05
-1.40984e-05
0.000121308
-2.54707e-05
5.25207e-05
3.79474e-05
3.1194e-05
-3.85308e-05
-5.10248e-06
-4.49659e-05
2.62953e-05
1.1243e-05
-1.86061e-05
1.74431e-05
-3.76211e-05
8.71147e-06
-3.17957e-05
7.14649e-05
-7.47012e-05
0.000101809
5.19644e-05
3.18052e-05
1.94153e-05
4.63658e-05
-3.00468e-06
1.62396e-05
7.99985e-05
3.67581e-06
-1.37987e-05
-5.21085e-05
-5.62182e-05
2.68221e-05
-3.78017e-05
-4.78231e-05
2.88631e-05
-2.68988e-05
-1.16543e-05
-5.02806e-05
3.10766e-05
-2.00596e-05
3.81091e-05
-8.71737e-05
-4.69047e-05
1.67186e-05
4.92432e-05
9.12789e-06
1.42597e-06
-6.69416e-05
-7.27305e-05
-1.43617e-05
-9.74489e-06
-1.5698e-05
2.67378e-05
-9.21222e-05
-5.88646e-05
-1.25879e-05
5.10601e-05
-8.97492e-05
7.86016e-05
1.30895e-05
1.5168e-05
-0.000114672
-4.1971e-05
1.06479e-05
8.84153e-05
-6.75267e-06
-6.93055e-06
1.08089e-05
-9.15197e-05
-1.49584e-05
1.07789e-05
5.18085e-05
-3.28287e-05
4.25936e-05
9.43081e-06
7.85338e-07
4.03606e-05
-3.83519e-06
2.66728e-05
-2.21871e-05
6.11297e-07
2.16439e-06
1.83092e-05
-2.01635e-05
-7.52348e-05
-8.20155e-05
-4.08832e-05
3.06884e-05
3.11451e-05
-1.76035e-05
-1.14893e-05
3.87499e-05
9.27458e-06
1.17536e-05
-4.44872e-05
-5.27481e-05
-4.26525e-05
9.60722e-05
-3.91065e-05
-6.17563e-05
-4.5125e-05
4.72041e-06
-4.15778e-05
-1.74763e-06
2.57662e-05
4.81146e-05
-3.50764e-05
2.89148e-05
3.42639e-05
2.19489e-05
-2.03154e-05
-2.84296e-05
2.95845e-05
6.23254e-05
1.81495e-05
-1.77093e-05
-4.22897e-05
-3.51784e-06
6.3222e-05
3.54694e-06
7.63184e-06
-5.2934e-06
1.01697e-05
2.74986e-05
2.91368e-05
-2.60755e-05
-5.97399e-05
8.67877e-05
3.29313e-05
-1.45723e-05
-1.42364e-05
5.729e-05
3.84275e-06
9.81889e-05
0.000121367
-2.85931e-05
2.49981e-05
7.87154e-06
-1.86717e-05
-1.70153e-05
-7.32372e-05
0.00011208
-1.25975e-05
-6.0178e-05
7.86246e-06
3.08845e-05
9.78389e-06
7.84104e-06
1.71362e-05
4.86616e-08
-2.67223e-05
-2.56815e-05
-4.13363e-05
-4.55835e-05
-1.76241e-05
-7.76607e-06
-4.82694e-05
7.13977e-05
1.64241e-05
3.01739e-05
-3.19598e-05
1.39847e-05
-1.39405e-05
-1.55892e-05
4.47617e-06
-1.65853e-05
8.27658e-05
5.56018e-05
5.67257e-06
3.54114e-05
2.86207e-06
-1.63057e-05
2.07496e-05
9.63174e-06
-1.45014e-05
-4.88878e-05
-4.07482e-05
-9.69227e-06
4.12578e-05
-2.15805e-05
-3.41529e-05
5.64967e-05
-1.37315e-05
-5.04202e-05
3.84741e-05
-2.3362e-05
-1.19593e-06
-5.94477e-05
5.95208e-06
6.40075e-05
-7.39722e-05
-2.23715e-05
-4.28909e-06
-7.43154e-05
-1.58097e-05
5.6006e-05
-2.41012e-05
5.20147e-05
4.58725e-05
-3.16427e-05
0.000122277
2.89971e-05
1.20712e-05
-2.74089e-05
-3.44684e-05
-3.202e-05
5.98454e-05
4.27903e-05
-2.54271e-05
-1.62862e-05
4.25266e-05
4.55983e-05
-7.08054e-05
-4.53838e-05
-1.75918e-05
6.00135e-05
3.70813e-05
4.36972e-05
-7.64558e-06
2.17556e-05
1.4843e-05
1.47813e-05
3.49522e-05
1.44991e-05
-7.17354e-05
5.90794e-05
3.93525e-05
-1.6212e-05
4.74526e-05
-1.84561e-05
-3.84232e-05
8.46097e-05
5.78983e-05
5.2993e-05
-2.82946e-05
-1.40262e-05
-3.38187e-06
6.56872e-05
1.70162e-05
1.81665e-05
-1.45182e-05
-3.22154e-05
8.30169e-06
5.70649e-05
3.72087e-05
6.89621e-05
3.92864e-05
3.07858e-05
-1.59348e-05
4.175e-05
8.47282e-06
-3.21824e-05
-1.07549e-05
-1.45924e-05
5.39317e-05
1.21888e-05
2.11241e-05
-2.64748e-05
1.12987e-05
-2.39081e-05
-1.4451e-05
1.09982e-05
-7.73557e-06
4.69037e-06
1.68594e-05
6.67053e-05
1.57992e-05
-0.00010758
-8.24989e-05
6.52298e-06
-5.85073e-05
5.17323e-05
1.84869e-05
1.66777e-05
-7.07682e-05
5.68491e-06
-1.86221e-05
-4.33435e-05
5.83278e-05
-4.15355e-05
-7.76735e-05
-1.33209e-05
-3.7475e-05
-1.09954e-06
5.06303e-05
3.43448e-05
5.21397e-05
2.95317e-05
4.71442e-05
-2.02371e-05
0.000134813
5.51662e-05
-3.82705e-05
-1.1222e-05
0.000111733
1.1283e-06
-1.38332e-05
-2.07329e-05
-1.0534e-05
5.75115e-06
2.51088e-05
-6.47181e-05
1.22248e-06
0.00011825
2.02317e-05
-6.96788e-05
-8.34585e-05
9.06889e-05
4.29542e-05
-6.09944e-05
-2.33646e-06
4.52413e-06
-2.48615e-05
-7.49835e-05
-6.30168e-06
3.39792e-05
6.28864e-05
-2.65893e-06
-2.97544e-05
-6.67732e-05
-1.08314e-05
7.42264e-06
3.03185e-05
-1.26916e-05
1.26482e-05
-3.24745e-05
-1.54034e-05
4.65958e-05
-6.06175e-07
-7.33235e-05
-3.6117e-05
3.19342e-05
5.07117e-05
5.52047e-05
-3.86607e-05
-2.71013e-05
-1.73191e-06
4.00434e-05
-1.28826e-05
1.1524e-05
2.75387e-05
1.50996e-05
2.02367e-05
3.27814e-05
-0.000103583
-2.37201e-05
5.6299e-05
-3.56052e-05
-8.56413e-05
0.000101618
-2.90704e-05
2.15791e-05
-5.1951e-05
6.29388e-06
-5.95585e-05
3.80236e-06
-4.01156e-05
2.21783e-05
-9.73826e-06
6.35829e-05
-2.76123e-05
-2.54394e-05
9.06729e-05
-5.55882e-05
-3.51446e-05
1.47804e-05
-2.3094e-05
3.46851e-05
-4.10144e-05
-1.09319e-05
2.98409e-05
3.45643e-05
-4.7846e-05
-5.78746e-05
-3.72985e-05
3.58619e-05
-1.02366e-05
-1.76758e-05
3.83476e-05
4.55114e-06
-3.07257e-05
-6.31749e-05
6.19073e-06
-5.68882e-05
0.000120349
-0.000117728
-6.80872e-05
1.0187e-05
-1.0216e-05
2.82163e-05
-1.9602e-05
-6.25569e-06
3.50747e-05
9.93186e-06
-5.96482e-05
5.40573e-05
-2.97575e-05
-7.2713e-07
-9.39076e-06
-2.64804e-05
5.89003e-05
9.35839e-05
7.95011e-05
-1.68921e-05
-6.82933e-05
-7.77041e-05
4.75623e-05
-1.31712e-06
1.17447e-05
5.1631e-05
-6.31509e-05
2.2143e-05
3.45728e-05
-3.89622e-05
4.92728e-05
9.85386e-06
-2.73692e-05
-7.1801e-05
-2.20747e-06
9.41241e-06
5.68597e-05
-2.01403e-05
-8.6223e-06
7.08969e-06
9.57167e-07
-2.91979e-05
-3.67716e-05
9.87086e-07
-7.08364e-06
-7.77079e-05
4.07128e-05
2.28042e-05
-2.33534e-05
-2.82729e-05
6.35558e-06
-3.10614e-05
-2.37788e-05
5.87648e-05
3.77756e-05
-8.88541e-05
1.88746e-05
2.82153e-05
2.42071e-05
-1.97261e-05
3.13715e-05
2.67723e-05
-2.78912e-05
-1.14413e-05
4.39803e-05
-1.84722e-05
6.28945e-06
-9.41614e-06
3.67078e-05
-1.65385e-05
-2.21905e-05
-3.26342e-05
2.11541e-05
-9.05291e-05
-2.25266e-05
7.17817e-06
-1.678e-05
-5.12952e-05
-4.15262e-05
3.0258e-05
1.8758e-05
1.34516e-05
6.79974e-05
0.000103677
-2.68695e-05
-5.62218e-05
-7.36851e-06
-8.72917e-06
-8.22078e-06
-0.000119192
3.0766e-05
9.97081e-05
7.93552e-05
2.35233e-05
2.89571e-06
3.23564e-05
6.61891e-06
-1.27406e-05
-1.12372e-05
3.50201e-06
6.08944e-05
-6.73463e-06
5.99327e-05
-9.1081e-06
-4.93439e-05
-1.25013e-05
-1.7921e-05
3.41778e-05
-3.37979e-05
7.39563e-06
5.94537e-05
0.000102923
1.58964e-05
2.0744e-06
6.60843e-05
-5.49523e-05
-6.42203e-05
4.83647e-06
5.86055e-05
-3.53624e-05
-0.000113618
-3.21865e-05
8.25245e-06
3.03728e-05
4.09479e-06
1.25878e-05
-2.57909e-05
4.03007e-06
-1.99422e-05
-0.000115459
-8.30286e-06
2.3432e-05
1.67678e-05
-9.89973e-06
-1.77936e-05
3.41064e-05
5.38377e-05
-8.89879e-07
-3.26857e-05
-1.44829e-05
1.0839e-05
2.86292e-05
1.41956e-05
-1.13216e-05
4.36341e-05
-9.70019e-06
4.36604e-05
-6.26012e-06
-6.49595e-05
8.33401e-05
7.37328e-06
-2.3359e-05
-5.29964e-05
8.21974e-06
-7.67078e-05
-5.47336e-05
1.69985e-05
-2.3528e-05
6.93037e-05
-5.89248e-05
-1.58966e-05
-3.79665e-06
-4.36549e-05
1.74972e-06
6.90855e-06
-1.56336e-05
-1.26814e-05
-6.31344e-06
-2.87473e-05
6.35841e-05
-1.27363e-05
2.98873e-05
-1.94593e-05
0.00010666
-6.87314e-05
2.64251e-06
7.97831e-05
-7.2898e-05
-2.11624e-05
-1.82888e-06
-5.65476e-06
-3.07187e-05
-1.66008e-07
6.13106e-05
-4.53605e-05
-3.93693e-06
2.74236e-05
5.10006e-05
6.30144e-06
2.15231e-05
-5.93152e-05
-4.52383e-05
-4.56912e-05
-4.39744e-05
-2.38915e-05
-5.03431e-05
-2.24272e-05
-6.28908e-05
1.11943e-05
0.000117078
1.08844e-05
1.6035e-06
7.11565e-06
-1.24834e-05
-9.79605e-05
1.1728e-05
-2.43348e-05
-6.52873e-05
-4.57338e-05
9.77499e-05
-2.84505e-05
2.46852e-05
2.8972e-05
-3.39511e-05
9.1926e-05
-5.06376e-05
-3.13995e-05
4.18397e-07
2.26259e-05
5.23939e-05
-4.63511e-05
3.01958e-06
-7.25873e-05
3.62421e-05
4.53799e-05
5.10272e-05
4.9612e-05
1.14618e-05
6.3146e-06
1.38573e-05
1.41456e-06
1.35626e-05
-5.94296e-05
-5.26095e-05
-3.14445e-05
3.68988e-05
-1.13063e-06
4.39386e-06
1.65973e-05
1.01101e-05
-4.56733e-05
-5.67071e-05
-2.16056e-05
3.75393e-06
3.02102e-05
2.47173e-05
-3.70549e-05
-4.68164e-05
-8.03267e-05
-3.89207e-05
8.46451e-05
4.35194e-05
1.98977e-05
-8.1755e-06
-6.95791e-06
-5.38758e-05
3.5844e-05
-6.18508e-05
7.90432e-05
-1.59481e-05
-3.99174e-05
-6.26175e-05
3.51222e-05
5.15332e-05
1.97045e-06
-3.47104e-06
-9.95048e-06
5.45719e-05
-4.35943e-05
-3.20029e-05
3.58509e-05
-2.33704e-05
-7.19354e-06
3.16276e-05
-2.36786e-05
4.79078e-05
6.11595e-05
-1.50189e-05
5.83356e-05
-1.60111e-05
-5.55505e-05
-4.11182e-05
3.92949e-05
8.73669e-05
-9.01823e-06
2.39065e-05
5.31232e-05
-2.11853e-06
3.75924e-05
-6.11142e-05
-5.3782e-05
4.75652e-05
-2.97434e-05
-7.41595e-05
-1.30142e-05
3.82913e-06
-4.95901e-05
-1.00629e-05
1.48062e-05
3.36778e-06
-4.77557e-05
-3.26619e-05
4.77966e-06
4.40963e-05
4.04307e-05
-4.65773e-05
-4.65791e-05
9.95398e-06
6.58093e-05
1.77759e-05
-1.76018e-05
-0.000102062
4.74711e-05
-2.01662e-05
-7.77608e-06
-8.79867e-06
4.50332e-05
-5.59143e-06
-5.70061e-05
-1.93103e-05
-3.39667e-05
4.75908e-05
2.16512e-05
-2.22096e-05
-2.4779e-05
-2.54156e-05
-5.89096e-06
-1.15654e-05
-4.13185e-05
-4.02362e-05
1.20641e-06
-4.48264e-05
2.04251e-05
3.38058e-06
-2.82915e-05
3.01648e-05
9.34838e-06
-6.71302e-05
-4.05742e-05
7.09337e-05
-3.39557e-05
-2.67518e-05
2.1774e-05
1.56353e-05
1.44397e-05
-8.90181e-06
-1.19938e-05
1.44322e-05
8.70277e-05
-9.6939e-07
1.24228e-05
-5.5928e-05
-1.92777e-05
3.90813e-05
3.06952e-06
-4.05499e-05
7.56572e-06
6.72849e-05
3.94986e-05
-7.47538e-05
-3.48643e-05
2.46888e-05
-5.16151e-05
3.76708e-06
-4.08543e-05
-1.83189e-05
8.32829e-05
-3.53509e-05
-3.56361e-05
-9.10205e-06
-2.37033e-05
-7.61584e-05
-4.31733e-05
-3.4452e-05
3.03319e-05
-5.93211e-05
-4.43419e-05
-1.38482e-05
2.80144e-05
4.43449e-05
7.11344e-06
-4.18513e-07
-3.37955e-05
5.6318e-05
4.62113e-05
-7.51619e-05
0.000106831
-4.85466e-05
-1.38162e-05