# vtk DataFile Version 1.0
Net Charge Density
ASCII
DATASET STRUCTURED_POINTS
DIMENSIONS 256 128 1
ORIGIN 0 0 0
SPACING 0.15625 0.15625 1
POINT_DATA 32768
SCALARS rhonet float
LOOKUP_TABLE default
-3.8963e-06
-9.51277e-05
0.000144792
9.63218e-05
3.56844e-05
0.000120451
-0.000118445
9.18582e-05
0.000154216
2.28991e-05
-3.75605e-05
0.000108726
0.00010382
7.94453e-05
0.000109346
4.99605e-05
8.77432e-05
0.000140236
4.05882e-05
-6.79104e-05
-6.4068e-06
0.000141859
0.000144767
4.77822e-05
3.72678e-05
2.0743e-05
7.74217e-05
9.05889e-05
-1.35214e-05
-7.27428e-05
5.23024e-05
3.97234e-05
4.36691e-05
6.90082e-05
1.24415e-05
0.000171713
1.68071e-05
7.28725e-05
7.7358e-05
-5.53112e-06
2.29324e-05
6.8316e-06
0.000136404
9.39814e-05
2.0939e-05
1.8683e-05
-3.16135e-05
6.95554e-05
0.000116213
7.88727e-05
-1.20082e-05
2.49784e-05
8.34423e-05
0.000148995
3.55956e-05
1.75042e-05
0.000151012
-5.1747e-05
5.67839e-06
7.16959e-05
5.02794e-05
6.06021e-05
7.16827e-06
8.01802e-05
8.22489e-05
-8.03831e-05
4.41823e-05
0.000136175
4.09954e-05
4.82837e-05
7.92335e-05
3.67112e-05
-2.6916e-05
4.96674e-05
-1.15018e-07
5.11552e-05
4.2086e-05
-3.83079e-05
9.21616e-05
0.000106615
8.71841e-05
2.54083e-05
7.49618e-05
0.000101106
4.54688e-05
-4.48013e-06
-1.66909e-05
6.70484e-05
0.000119669
-2.34873e-05
9.00027e-05
-1.47952e-05
-3.90526e-05
-6.21495e-06
-8.99178e-05
5.22715e-05
0.000157961
2.40979e-05
9.1688e-05
-2.49451e-05
0.000157723
9.09192e-05
-3.16906e-06
9.4726e-05
3.90385e-05
0.00013097
-2.5786e-07
-6.85496e-05
2.66242e-06
7.39996e-05
0.00013342
5.7928e-05
2.02988e-05
3.31152e-05
8.04215e-05
4.36594e-05
1.22658e-05
7.49693e-05
5.09603e-05
4.32276e-05
-3.98806e-05
-3.4563e-05
4.04445e-05
2.44897e-05
0.00011572
6.60878e-05
1.82552e-05
8.13092e-05
1.99638e-05
-1.88099e-05
0.000119796
9.26162e-05
-2.24367e-06
3.77486e-05
2.03243e-05
6.79656e-06
4.4609e-05
-3.19164e-05
4.68969e-05
-1.15029e-05
-4.98409e-05
2.32956e-05
2.09624e-05
0.000160761
9.88224e-05
2.06393e-06
0.000137836
1.15237e-05
-3.11239e-05
0.000132418
1.78269e-05
2.91317e-05
0.000108428
-8.34535e-06
3.45042e-05
4.32304e-05
5.74638e-06
3.42712e-05
-5.27641e-06
1.75426e-05
7.6778e-05
2.50085e-05
0.000112709
-2.20689e-05
3.25853e-05
2.5523e-05
5.84617e-05
-6.12725e-05
0.000105448
0.000137296
2.50289e-05
4.32235e-05
7.45818e-05
0.000111578
-2.02684e-05
-8.13301e-06
8.72933e-05
-8.23229e-05
1.15579e-05
3.31806e-05
8.8769e-05
-7.06e-05
-3.18111e-05
5.65371e-06
1.04989e-05
7.98535e-05
4.142e-05
7.20923e-05
0.000102554
7.46858e-05
2.48846e-05
0.000198126
8.16125e-05
-6.56992e-05
6.24196e-05
0.000201229
4.75227e-05
8.32754e-05
7.86666e-05
-1.63087e-05
5.95988e-05
0.000149169
4.39015e-05
3.83357e-05
-1.00753e-05
6.9771e-05
-5.98878e-05
5.34235e-05
6.86805e-05
8.57909e-05
6.8102e-05
0.000137439
0.000106097
-2.4052e-05
0.000111081
-0.000131281
0.000102691
9.90946e-05
-5.2873e-05
-3.79211e-05
8.69744e-05
0.000114877
0.000176991
3.40526e-05
7.95297e-05
5.67453e-05
-3.69134e-05
-1.51402e-05
8.6903e-05
6.86067e-05
6.2281e-06
4.16544e-05
2.36374e-05
2.60692e-05
0.000121307
-3.55702e-05
-2.05773e-05
2.7501e-05
5.94517e-05
8.97981e-06
1.84993e-05
8.6694e-05
-5.82663e-05
-3.0722e-07
2.65903e-05
-1.44095e-05
-2.21961e-05
-3.95463e-05
0.000128655
-4.29631e-06
2.10479e-05
-3.85131e-05
0.000102293
2.14381e-05
2.40526e-05
4.18613e-05
-0.0001049
2.47045e-05
-6.30287e-05
-2.512e-05
-2.38871e-05
5.12262e-05
-2.6045e-05
-7.57645e-05
4.98932e-05
-6.60465e-05
-4.28996e-05
2.33412e-05
-5.99085e-05
-8.02728e-05
3.00223e-06
-4.24264e-05
4.66243e-06
1.08919e-05
-2.15755e-05
-4.06033e-06
-5.82073e-05
-6.7494e-05
-0.000106138
-1.79202e-05
-2.00458e-05
-5.72719e-05
-2.52763e-05
7.72998e-06
-3.07413e-05
-8.53869e-05
-3.53889e-05
-8.36072e-06
2.74417e-05
-7.95685e-05
-6.67484e-05
2.31334e-05
-0.000103178
-3.37883e-05
1.98336e-05
-8.20329e-05
-5.15868e-05
-4.38412e-05
8.67271e-06
3.56e-05
-2.47125e-05
4.87384e-06
-0.000112384
-3.15172e-05
3.88797e-05
-3.39411e-05
-6.5613e-05
-4.11933e-05
-3.17377e-05
2.98235e-05
-2.85321e-05
-3.54565e-05
-2.34866e-05
-0.00011611
1.48104e-05
-3.37933e-05
4.56301e-05
-5.12686e-05
-5.7285e-05
-3.73449e-05
-3.01475e-05
-6.05667e-05
-1.00291e-05
-7.9634e-05
-0.000109192
1.21046e-05
-4.39815e-05
9.01741e-06
-1.84355e-05
1.72418e-05
-5.13538e-05
-1.04336e-05
4.76092e-05
-2.54943e-05
5.74087e-05
2.1595e-07
-3.24124e-05
-5.04447e-05
-8.2256e-05
2.84828e-05
2.4466e-05
-6.16942e-05
-0.000158637
-4.16982e-05
-6.56582e-08
-1.69141e-05
8.77364e-06
5.33133e-05
3.15602e-06
-1.0794e-05
2.4714e-05
-5.96547e-06
3.43232e-05
-2.73114e-05
-6.8472e-06
-1.89513e-06
-4.36431e-05
-0.000106618
-3.96518e-05
-2.96772e-05
-3.55599e-05
1.64222e-05
-5.9124e-05
-4.27188e-05
-1.06706e-06
-5.99923e-06
5.43515e-05
-3.54238e-05
-7.13798e-05
-7.13187e-05
4.01699e-05
1.15475e-05
-5.23517e-05
-1.11546e-05
9.64536e-06
3.18988e-05
-8.5775e-05
1.39612e-05
-6.13793e-05
-7.74162e-06
-3.48634e-05
-1.67098e-05
-4.5566e-05
-6.96025e-05
1.70249e-05
-4.881e-05
-2.07969e-05
1.59813e-05
-1.0553e-05
-2.35448e-05
-1.24412e-05
-3.31043e-05
-4.60123e-05
-1.33582e-05
-4.22458e-05
-8.323e-06
-5.94474e-05
-7.82578e-05
8.69774e-06
-2.01934e-06
-8.38251e-05
1.05492e-05
-3.22356e-05
-4.36762e-05
-0.000117681
-8.72591e-06
-3.99575e-05
-3.83074e-05
-7.16745e-05
9.37073e-06
3.0005e-05
-1.70411e-05
-2.39993e-05
-1.85601e-06
-5.11226e-05
-2.02556e-05
-8.13483e-05
-6.40943e-05
3.62429e-05
-8.02714e-05
-7.56327e-06
2.37462e-05
2.21165e-05
-5.27814e-05
-2.42516e-06
3.60701e-05
-9.46564e-05
1.0237e-05
-2.21475e-05
3.97034e-05
-4.13512e-05
-2.55483e-05
-5.70097e-06
3.04057e-05
-6.90699e-05
-4.77675e-05
3.67508e-05
-4.79619e-06
2.0595e-06
-4.86565e-05
-0.000107547
-6.60243e-05
-2.66007e-05
-2.24797e-05
-9.33022e-06
-1.88573e-05
-0.00010145
6.32252e-06
3.69593e-05
4.61086e-06
-1.0849e-05
-2.36543e-05
-8.50845e-05
-3.90908e-05
4.81099e-05
-6.97782e-06
-7.51886e-05
-6.4628e-05
-4.37902e-05
3.07555e-05
-5.53511e-05
1.83075e-06
-5.12166e-05
9.71671e-05
1.17976e-05
-4.14067e-05
-5.22409e-05
-4.83996e-05
-4.73994e-05
3.21253e-05
-3.50827e-05
-7.29866e-05
1.69838e-06
-2.53881e-05
-1.98885e-05
4.50527e-06
-1.732e-05
7.05677e-05
5.70886e-05
-6.70668e-05
-3.48978e-05
-2.73387e-05
-7.0205e-05
-2.06064e-05
2.42676e-05
8.58861e-05
-8.70347e-05
6.93509e-06
-4.34532e-05
-3.62704e-05
6.90322e-05
3.75884e-05
-6.27588e-05
-4.99166e-06
2.55414e-05
-5.11213e-05
2.26242e-05
-1.34832e-05
-4.80204e-05
-1.98239e-05
3.05474e-06
3.73248e-05
3.42679e-05
-1.23484e-05
-2.31676e-05
-0.000132199
-1.66707e-07
-7.60669e-06
5.12585e-05
-7.35326e-06
-7.36318e-05
5.01692e-06
-3.30424e-05
-1.99093e-06
5.00253e-05
-7.79773e-06
-2.33892e-05
-8.48016e-06
1.05426e-06
-1.92302e-05
7.13235e-05
-5.15231e-05
7.82241e-06
3.11635e-05
6.53439e-05
-4.67903e-05
-2.90645e-05
-1.14909e-05
-2.49567e-05
-9.3428e-05
-2.04818e-05
3.51592e-05
4.88629e-05
3.64078e-05
-1.64529e-05
3.77701e-05
6.14576e-05
-4.75247e-05
4.48452e-05
4.40085e-05
9.82301e-06
-5.10865e-05
1.23071e-05
2.34445e-05
7.04306e-05
4.96681e-05
-3.57148e-05
2.25287e-05
5.27373e-06
-2.51161e-05
4.80087e-05
3.40401e-05
2.11622e-05
-2.89198e-05
-7.34266e-05
2.16751e-05
3.4873e-05
1.4212e-06
-4.63352e-05
1.81713e-06
-1.65715e-05
5.22439e-05
1.92709e-05
-4.25106e-05
-9.05945e-05
6.88445e-06
2.94284e-05
9.43337e-06
3.90762e-05
-4.01764e-05
2.79779e-05
-3.30698e-05
9.02755e-05
1.8706e-05
2.19363e-05
-2.38944e-05
3.89217e-05
7.9507e-05
-1.43016e-06
-1.07865e-05
-4.3123e-05
-5.63422e-05
3.65551e-05
5.69155e-06
-2.9766e-05
3.18501e-05
-3.75102e-05
-1.97687e-05
6.36958e-05
5.06415e-05
-4.80585e-05
-4.18772e-05
-9.31241e-06
-2.63562e-05
-1.33662e-05
5.09447e-05
7.4107e-05
-1.38811e-05
-5.52125e-05
-6.0239e-05
2.25473e-05
4.01651e-05
-3.56473e-05
4.60861e-05
6.04029e-05
1.00422e-05
-2.72852e-05
-6.84022e-05
1.03844e-05
-3.90667e-05
-6.67312e-05
1.89324e-05
-3.86647e-05
-7.26084e-05
1.55342e-05
3.4466e-05
-9.18168e-06
-2.52388e-05
3.49996e-05
6.71942e-05
-7.81403e-06
-2.34853e-05
1.90871e-05
-3.4557e-05
-3.24682e-06
3.17622e-05
-4.33623e-05
-4.44562e-05
-1.29165e-05
6.19071e-05
-1.54719e-05
-1.92425e-05
-9.33884e-07
1.07801e-05
-2.67862e-05
6.43287e-05
6.28526e-07
3.16115e-05
-3.45437e-05
-2.02109e-05
3.29817e-05
-8.92964e-06
-5.33778e-05
-6.58382e-05
-1.97741e-05
2.38325e-06
3.65473e-05
8.36793e-06
-1.87801e-06
1.48289e-05
-2.75737e-05
4.24772e-05
2.79524e-05
9.69109e-05
6.65829e-05
1.94262e-05
1.45668e-05
-1.36637e-05
5.90174e-05
5.77691e-05
-3.53303e-05
8.65558e-05
-1.88483e-05
-2.10229e-05
-5.39365e-05
1.12342e-05
-1.22986e-05
7.03167e-05
-1.0787e-05
6.14929e-06
5.7793e-05
3.47516e-05
-3.56394e-05
-5.85662e-06
4.38265e-05
2.99952e-05
1.48879e-05
3.09432e-06
-6.29968e-05
1.44138e-05
-9.34466e-05
4.10875e-05
-3.34163e-05
-7.29719e-05
6.78655e-06
-4.31377e-05
3.2607e-05
-5.40693e-05
-3.51891e-05
-7.38061e-06
-3.46785e-05
7.7819e-06
5.28593e-05
1.66988e-05
-1.61491e-06
7.61894e-05
-2.89641e-06
5.2789e-05
3.30999e-05
2.69051e-05
3.20119e-05
-4.14014e-05
-7.91214e-05
6.70413e-06
-3.71059e-05
3.38652e-07
3.1288e-05
2.55893e-05
4.62427e-05
-7.34488e-06
3.85565e-05
-1.82483e-05
8.60399e-05
-3.51761e-05
-2.42114e-05
-2.44783e-05
3.96881e-05
3.9636e-05
-5.5962e-06
-1.59818e-05
5.26491e-05
-3.1283e-05
-9.51288e-06
1.32082e-05
3.0308e-05
4.01441e-05
-6.21303e-05
6.55802e-06
-4.02804e-05
7.68165e-05
-2.30568e-05
2.42773e-06
-2.36236e-05
-7.6571e-06
1.05565e-06
-7.5846e-05
1.8905e-05
4.24921e-05
2.73343e-06
-4.68809e-05
-0.000111356
2.32972e-05
1.92822e-05
1.67009e-06
4.11421e-05
-1.26261e-05
3.11458e-06
-2.15394e-05
-7.4189e-05
3.578e-05
1.81665e-05
-4.43205e-05
1.38057e-05
2.49421e-05
-1.40069e-05
-5.45261e-05
-1.59674e-05
4.84827e-05
-4.49945e-06
-0.000139603
5.7974e-05
3.08059e-05
0.000100899
-3.72751e-05
3.82721e-05
1.96727e-05
-2.19457e-05
-3.16997e-05
-3.15025e-05
5.79788e-05
8.84748e-05
-9.06759e-06
-5.99883e-05
9.21881e-06
8.46398e-06
-1.86265e-08
-2.07853e-05
-3.90373e-05
0.000130275
-3.43213e-05
-4.70518e-05
5.37115e-05
-2.79653e-06
2.82307e-06
-3.79189e-05
-6.05409e-05
4.75427e-05
4.84365e-05
-1.75372e-05
3.74634e-05
-5.19101e-05
4.18172e-05
3.395e-05
-6.99724e-05
2.73659e-05
3.88058e-05
1.67807e-05
-5.26783e-05
6.28692e-05
-2.19627e-05
-4.31016e-05
-7.40332e-06
-2.66797e-05
4.25464e-05
3.65009e-06
2.7573e-05
-4.73877e-05
-6.43684e-06
3.03097e-05
-2.26301e-05
-8.19343e-05
-4.95822e-05
1.36236e-05
3.36368e-05
4.5352e-05
-3.78174e-05
6.72052e-05
-2.0206e-05
-6.23039e-05
4.74693e-05
4.62763e-05
1.24052e-05
3.82878e-05
2.1503e-05
5.87148e-05
-6.49994e-05
-4.25667e-05
-1.34121e-05
4.39063e-05
4.78702e-05
-2.23203e-05
-6.0518e-05
1.98302e-06
-2.43739e-06
-3.0012e-05
1.4892e-05
2.92045e-05
7.28869e-05
7.06635e-05
-3.58253e-05
-0.000140627
2.58457e-05
1.20339e-06
-2.88254e-05
-4.69692e-05
5.72428e-05
3.12588e-05
1.75567e-05
-0.000107817
-1.58474e-05
1.13323e-05
3.99514e-05
3.28133e-05
-4.30105e-05
3.20363e-05
3.74878e-05
-3.91934e-05
2.83306e-05
3.71939e-05
-1.37141e-05
3.56365e-05
-5.44157e-05
8.30446e-05
3.03242e-05
-1.94273e-05
-2.67297e-05
6.84279e-05
4.1218e-05
-2.91597e-05
3.35344e-05
3.92137e-05
3.68367e-05
-3.48368e-05
-2.81511e-05
1.41674e-05
3.52949e-05
-7.15664e-05
-2.16158e-05
4.6005e-05
3.64988e-05
2.31862e-05
-3.12359e-05
-7.13485e-05
2.25479e-05
-3.52724e-05
7.69852e-05
-4.16435e-05
-1.37857e-05
7.45144e-05
-5.40669e-05
4.00376e-06
-1.77844e-05
-5.58046e-05
2.01229e-05
5.95988e-06
5.05822e-05
6.31157e-05
-6.58252e-05
8.14188e-05
-4.32242e-05
-2.44335e-05
2.67201e-05
4.39456e-06
9.56806e-06
7.65512e-06
4.3913e-06
-4.22166e-05
2.1703e-05
1.01274e-05
-1.56354e-05
-7.88146e-05
-2.79717e-05
-7.33114e-06
2.62833e-05
6.22857e-06
2.38393e-05
-8.04104e-06
5.26159e-05
3.00964e-05
-3.07956e-05
-8.68585e-05
1.14746e-05
3.87335e-05
1.11605e-05
-2.85619e-05
-9.12463e-06
-2.48128e-06
2.21184e-05
-3.22994e-06
2.53441e-05
2.25469e-05
3.20969e-05
-2.0874e-05
-3.06277e-06
6.05569e-06
-3.414e-06
3.49667e-05
-2.44877e-05
5.34739e-05
1.96625e-05
1.27887e-05
-1.15689e-05
2.92526e-05
2.87092e-06
3.39589e-05
-1.87164e-05
-2.88629e-06
-6.90412e-05
2.46682e-05
-5.0388e-06
-1.26839e-05
2.05979e-05
-2.63399e-05
-2.66172e-06
-3.02473e-05
-7.38939e-05
-1.16541e-05
0.000124287
-9.67178e-05
2.30564e-05
4.08883e-05
1.12079e-05
1.89695e-05
2.29753e-05
-6.504e-05
-1.85561e-05
-3.58942e-05
9.88785e-06
-2.25084e-05
-0.00011462
5.06438e-05
-0.000120174
-5.21546e-05
0.000129995
-2.85548e-05
-3.29312e-05
1.39815e-05
-3.0878e-06
-4.58432e-06
-6.87181e-05
5.00586e-07
2.54061e-05
-3.06804e-05
-4.83692e-05
-2.09833e-05
3.77462e-05
3.99078e-05
1.09907e-05
-3.37756e-05
2.43068e-05
4.91925e-05
4.58605e-05
-7.13916e-05
-6.57423e-05
-4.48681e-05
5.1466e-05
2.45101e-06
-1.54669e-06
-6.9671e-05
3.42028e-07
-1.04235e-05
6.89388e-06
-2.29036e-05
-2.35531e-06
-3.06215e-05
3.27409e-05
-3.22692e-06
-1.03377e-05
-2.52567e-05
2.84623e-05
9.52233e-05
-3.0262e-05
3.21711e-05
4.43812e-05
-4.54088e-05
-0.000101101
-3.30776e-05
0.00011101
6.2544e-05
-5.28282e-05
-0.000107186
-1.18129e-05
6.85672e-05
3.46118e-05
-5.40469e-05
-5.21379e-05
4.75179e-05
-4.06366e-05
-0.000119436
6.12035e-05
-1.81564e-05
-3.1173e-05
0.000105493
-4.54732e-05
-9.29433e-05
-5.38456e-05
9.50508e-06
-5.54986e-05
1.67228e-05
4.28152e-06
-7.23695e-05
6.52403e-06
4.59246e-05
6.77712e-06
-2.06684e-06
5.32221e-05
2.83383e-05
-3.75984e-05
-4.8551e-05
0.000104193
-1.62808e-05
-5.72798e-06
-2.96994e-05
-2.67208e-06
-4.58116e-05
8.22789e-06
-1.3111e-05
-4.38886e-05
-3.36714e-05
-5.4955e-05
4.80607e-05
-3.43903e-05
5.50936e-05
-3.26771e-05
-2.49944e-05
-9.60869e-06
3.26968e-05
-4.34383e-05
8.21741e-05
3.9906e-06
1.01076e-05
-2.64163e-05
-1.68558e-06
5.18312e-05
-5.05239e-05
7.65335e-05
-2.69971e-05
-2.84488e-05
5.25336e-06
1.9129e-05
5.75267e-05
-1.55072e-05
1.41478e-05
1.54795e-05
9.67544e-05
-2.60593e-05
2.79746e-06
-6.86487e-05
-4.36406e-06
5.35534e-06
-6.23288e-07
-1.12271e-05
2.76119e-05
-7.06449e-05
2.38863e-05
3.64644e-05
-5.86058e-06
-1.47327e-05
5.85357e-05
-1.46392e-06
5.05825e-07
-8.36398e-06
-6.68819e-05
-7.45803e-06
-5.66776e-05
5.49146e-05
-1.55675e-05
-6.5117e-05
1.93969e-05
-2.50088e-05
1.49549e-05
4.44496e-05
-8.87783e-06
-5.64919e-05
-7.07044e-05
-8.34151e-06
-2.963e-05
-2.1531e-06
-1.83217e-05
-1.89338e-06
-0.000102778
8.74815e-06
3.2482e-05
3.0796e-05
-0.000103662
-3.61558e-05
2.02423e-05
8.39113e-05
4.75242e-06
-1.31457e-05
3.19694e-05
7.15023e-07
-3.71367e-05
-7.51374e-05
-6.92119e-05
-2.21224e-06
-7.09703e-05
1.36695e-06
-4.3752e-05
5.21011e-05
-3.20331e-05
-2.11231e-05
9.38214e-06
-1.06078e-06
4.85103e-06
-2.59294e-05
5.72979e-05
-2.03841e-05
4.02207e-05
1.71226e-05
-4.36115e-05
4.79084e-06
-4.09901e-05
-3.4878e-07
2.30942e-05
-3.31624e-05
1.34477e-05
1.23591e-05
-2.61031e-05
-4.63809e-05
1.17682e-05
-4.40206e-05
0.000100773
4.1617e-05
5.95755e-05
5.72728e-06
3.63588e-06
3.72173e-05
-2.83869e-05
-2.65327e-05
-3.87029e-05
-3.32439e-05
-2.94531e-06
-4.83438e-06
-7.42387e-05
-9.2118e-05
-4.12927e-05
9.36041e-05
1.79684e-05
2.46146e-05
5.07898e-05
-3.9092e-05
-4.8694e-05
-6.07772e-05
2.9187e-05
-7.01523e-05
2.39769e-05
5.71003e-05
1.4381e-05
-8.54452e-05
6.48922e-05
5.64137e-06
1.15011e-05
-0.000120717
5.33737e-05
7.36075e-05
5.39166e-06
1.38736e-05
1.18411e-05
-9.65106e-06
3.66954e-05
-3.03432e-05
4.71815e-05
6.17248e-05
-4.68118e-06
-4.04327e-05
-2.98403e-05
4.8338e-06
-1.19186e-06
4.36949e-05
-1.84984e-06
-1.1377e-05
-1.7061e-05
7.82479e-05
-4.58339e-06
1.7914e-05
-3.62851e-05
-7.78639e-05
7.38346e-05
-9.1931e-05
-5.20807e-06
2.09289e-05
2.30595e-06
7.05889e-05
3.83818e-05
7.42101e-06
5.50147e-05
-1.01447e-05
4.60945e-05
-1.68376e-05
-5.88744e-05
-4.91901e-05
5.1422e-05
5.45882e-05
-1.98532e-05
5.81002e-05
3.02008e-05
1.38805e-05
2.24963e-05
6.25567e-05
6.90157e-06
-8.80081e-05
-1.34255e-05
-5.00807e-06
4.87003e-05
5.99243e-05
6.30914e-05
1.4262e-06
2.14425e-05
-2.66382e-05
-9.90415e-06
-6.22047e-05
-1.60285e-05
3.25947e-05
-3.85359e-05
-1.90412e-05
5.31542e-05
-2.28167e-05
1.54101e-05
-4.23556e-05
-5.64731e-07
-5.11478e-05
-1.07907e-05
-0.000114607
2.06348e-05
1.917e-05
7.28539e-05
2.73278e-05
-4.94909e-05
5.0578e-05
5.27869e-05
6.41996e-05
-7.99051e-06
4.43966e-05
-4.86509e-05
-2.58868e-05
-3.12886e-05
9.76643e-05
-4.46027e-05
-4.8709e-05
2.70449e-05
-5.04588e-05
1.36553e-05
-9.01837e-05
-0.000131356
6.04796e-05
5.6749e-05
-1.70096e-05
2.47727e-05
-9.10833e-06
5.16699e-05
-8.06585e-05
3.82909e-05
3.78344e-05
1.59073e-05
-7.97608e-06
-6.65523e-06
3.57416e-05
3.13778e-05
-9.32615e-05
-4.72952e-05
-9.38079e-05
-4.97691e-05
6.84742e-05
-3.54393e-05
9.14512e-06
-3.6623e-05
3.8721e-05
1.69344e-05
4.47613e-05
-5.40497e-05
2.94939e-05
6.61316e-05
1.22412e-05
-6.6429e-05
1.1333e-06
1.48171e-05
-1.36935e-05
6.08943e-05
-9.09087e-07
7.89309e-05
9.09658e-06
5.26161e-05
-9.66366e-05
3.41132e-05
6.60552e-06
-1.27821e-05
-4.43452e-05
-2.06705e-05
3.15043e-06
-9.30391e-07
-6.30611e-05
-0.000100799
-4.15872e-05
-9.15085e-05
-4.81857e-05
5.62922e-05
-1.52459e-05
-5.22905e-05
-2.41201e-05
-1.08292e-05
-4.57697e-05
-4.23098e-05
1.19056e-05
2.83611e-05
-1.41364e-05
-5.2824e-05
-6.13476e-05
1.77324e-05
1.07331e-05
-2.08275e-05
5.96306e-05
1.79105e-06
2.51206e-05
-2.36355e-05
5.88676e-05
3.18954e-05
4.76108e-05
-7.31893e-05
7.22464e-05
-0.000100923
-6.24126e-06
6.49315e-05
8.48877e-06
3.23066e-05
-3.30666e-06
-4.32205e-05
2.37837e-06
1.9997e-05
-1.27291e-05
9.59367e-06
3.61401e-05
2.75427e-05
6.92144e-05
-2.72365e-06
-6.32238e-05
-6.14603e-06
-7.61065e-06
-1.02113e-05
4.45028e-05
5.20062e-06
2.67311e-05
-6.62985e-06
-4.79841e-06
-2.94804e-05
1.43549e-05
5.69003e-06
6.79197e-05
9.01218e-06
3.43907e-05
1.84252e-05
1.29046e-05
-4.46521e-05
3.45935e-05
3.36547e-05
1.93878e-06
-1.88095e-05
4.46871e-05
-5.23896e-05
6.75363e-05
7.7465e-05
6.37164e-06
8.13847e-05
-3.18107e-05
2.20673e-05
-1.73566e-05
-2.8781e-05
-6.8658e-05
1.19235e-05
2.47909e-05
1.23708e-05
-3.48676e-05
2.16777e-05
-2.20749e-05
-3.52517e-06
1.23344e-05
1.70944e-06
2.97128e-05
-6.88559e-05
-1.33736e-05
9.18957e-05
-3.43514e-05
1.47279e-05
-1.23633e-05
4.94564e-05
2.42066e-05
-4.44688e-05
5.05936e-05
0.000106778
9.66929e-05
6.52506e-05
8.90228e-07
-7.20681e-06
-1.14568e-05
6.66904e-05
-5.44754e-06
4.01792e-05
-2.33978e-05
4.1756e-05
-3.41277e-05
-2.13971e-05
6.28049e-06
-2.62642e-05
3.58209e-05
-8.93138e-05
4.69466e-05
-3.57557e-05
3.30247e-05
2.34647e-05
-9.97112e-05
2.21343e-05
3.57019e-05
-1.87462e-05
2.13259e-05
-6.78235e-05
2.71616e-05
-5.16975e-05
5.68141e-05
4.88436e-05
-1.74803e-05
3.80412e-05
4.54166e-05
1.17874e-05
-8.38004e-06
2.07491e-05
-2.05637e-05
5.28258e-05
-7.57062e-05
-4.26271e-05
-7.67258e-06
2.04979e-05
-1.54357e-05
-3.12332e-05
1.17403e-05
6.21651e-05
4.88077e-05
4.33624e-06
-0.00012757
-5.02246e-05
-6.86673e-05
-6.6099e-05
3.09136e-05
7.61503e-05
-7.01355e-05
-7.02997e-06
9.28505e-06
4.82404e-05
3.83914e-06
8.47294e-06
-6.75763e-05
-1.8583e-05
1.2174e-05
-8.66817e-06
-3.19523e-05
-1.42828e-05
3.18373e-06
7.33079e-06
1.82411e-05
2.56513e-05
-6.78843e-05
-4.71459e-06
3.49289e-05
-5.05331e-05
1.07938e-05
-1.50144e-05
-1.63056e-05
-2.9539e-05
9.53891e-05
2.63905e-05
-1.76693e-05
-2.15017e-05
-1.27996e-05
8.03289e-06
-1.35811e-05
2.63909e-05
-7.18539e-06
-1.90848e-05
2.1728e-05
5.39331e-05
-9.03433e-05
5.79037e-05
-1.44782e-05
-1.46059e-05
-3.83223e-05
-4.54391e-05
2.61624e-05
5.74819e-05
2.07168e-05
1.80583e-05
2.61944e-05
-7.22171e-06
-2.65969e-05
2.38707e-05
-3.81793e-05
-3.29994e-05
2.86612e-05
4.19584e-06
5.34143e-05
-1.29018e-05
-4.54625e-06
9.10492e-05
1.6332e-05
1.69139e-05
-4.63274e-05
3.55742e-05
-3.91717e-05
2.29462e-05
1.72229e-05
3.08617e-06
6.80581e-05
6.72808e-05
-1.70234e-05
-7.54697e-06
4.55866e-05
-1.23873e-05
-6.61227e-06
0.000122597
3.26276e-05
1.82122e-05
2.49494e-05
-5.22536e-05
-2.22392e-05
-5.70167e-05
1.30478e-06
7.69028e-06
2.41784e-05
1.07718e-05
-5.20687e-05
1.76704e-05
6.44936e-05
-6.11885e-05
5.44072e-05
-4.49318e-05
-7.05204e-05
6.23125e-06
3.2792e-05
4.70873e-05
1.32772e-06
1.32953e-05
-7.78601e-05
-2.81829e-05
-6.89249e-06
0.000112601
3.6848e-05
-3.34257e-05
4.85627e-05
3.18347e-05
1.14888e-05
6.94898e-05
0.00013327
-7.38592e-05
-4.20369e-05
-1.6897e-05
2.04114e-05
8.13219e-06
-1.95543e-05
3.4755e-05
5.05918e-05
-6.30392e-05
-4.22688e-05
1.79627e-05
5.70342e-05
-6.66594e-07
2.83979e-05
-3.47799e-05
-8.23163e-05
-3.16931e-05
-5.51022e-05
-1.69482e-05
6.43999e-05
-5.57771e-05
5.25212e-05
-0.000112341
-7.10649e-05
-1.52233e-05
-1.60272e-05
-3.59295e-05
5.28322e-05
4.40272e-05
-4.75475e-06
-6.05782e-05
-2.0325e-05
1.72127e-05
2.40903e-05
-2.15002e-05
-3.80279e-05
1.84211e-05
-5.2297e-05
-1.48042e-05
-9.04261e-05
-1.86141e-05
-1.40984e-05
0.000121307
-2.54698e-05
5.25207e-05
3.79474e-05
3.1194e-05
-3.85304e-05
-5.1019e-06
-4.49665e-05
2.62946e-05
1.12428e-05
-1.86055e-05
1.74427e-05
-3.7621e-05
8.71078e-06
-3.17957e-05
7.1465e-05
-7.47016e-05
0.000101809
5.19647e-05
3.18056e-05
1.94155e-05
4.63655e-05
-3.00468e-06
1.62402e-05
7.99991e-05
3.67605e-06
-1.37992e-05
-5.21084e-05
-5.62184e-05
2.68226e-05
-3.78019e-05
-4.78234e-05
2.88627e-05
-2.68995e-05
-1.16546e-05
-5.02805e-05
3.10771e-05
-2.00589e-05
3.81091e-05
-8.71738e-05
-4.69048e-05
1.67196e-05
4.92433e-05
9.12789e-06
1.42632e-06
-6.69421e-05
-7.273e-05
-1.43618e-05
-9.74513e-06
-1.5698e-05
2.67371e-05
-9.21222e-05
-5.88645e-05
-1.25875e-05
5.10601e-05
-8.97491e-05
7.86013e-05
1.30897e-05
1.51681e-05
-0.000114672
-4.19719e-05
1.06483e-05
8.84151e-05
-6.75209e-06
-6.93067e-06
1.08081e-05
-9.15194e-05
-1.49587e-05
1.07789e-05
5.18087e-05
-3.28289e-05
4.25937e-05
9.43081e-06
7.85571e-07
4.03613e-05
-3.83507e-06
2.66731e-05
-2.21875e-05
6.10948e-07
2.16416e-06
1.83084e-05
-2.01634e-05
-7.52343e-05
-8.20158e-05
-4.0883e-05
3.06885e-05
3.11446e-05
-1.76032e-05
-1.14894e-05
3.87501e-05
9.27411e-06
1.17534e-05
-4.44873e-05
-5.27482e-05
-4.26527e-05
9.60719e-05
-3.91062e-05
-6.17562e-05
-4.51249e-05
4.72006e-06
-4.15781e-05
-1.74763e-06
2.57659e-05
4.81143e-05
-3.50769e-05
2.89143e-05
3.42636e-05
2.19487e-05
-2.03147e-05
-2.84296e-05
2.95847e-05
6.2326e-05
1.81489e-05
-1.77093e-05
-4.22895e-05
-3.51749e-06
6.32221e-05
3.54717e-06
7.63196e-06
-5.29387e-06
1.01693e-05
2.74981e-05
2.91363e-05
-2.60756e-05
-5.97397e-05
8.67872e-05
3.29306e-05
-1.45723e-05
-1.42365e-05
5.72902e-05
3.84264e-06
9.81889e-05
0.000121367
-2.85936e-05
2.49977e-05
7.87235e-06
-1.86715e-05
-1.7015e-05
-7.3237e-05
0.000112081
-1.2597e-05
-6.01783e-05
7.86223e-06
3.08844e-05
9.78319e-06
7.84127e-06
1.71363e-05
4.86616e-08
-2.67223e-05
-2.56812e-05
-4.13364e-05
-4.55836e-05
-1.7624e-05
-7.76607e-06
-4.82686e-05
7.13979e-05
1.64243e-05
3.01738e-05
-3.19593e-05
1.39845e-05
-1.39407e-05
-1.55894e-05
4.47605e-06
-1.65852e-05
8.27658e-05
5.56018e-05
5.6728e-06
3.54121e-05
2.86242e-06
-1.63054e-05
2.07498e-05
9.63302e-06
-1.45013e-05
-4.88879e-05
-4.07484e-05
-9.69169e-06
4.12575e-05
-2.15803e-05
-3.41528e-05
5.64966e-05
-1.37314e-05
-5.04199e-05
3.84741e-05
-2.33625e-05
-1.19652e-06
-5.9447e-05
5.95197e-06
6.40076e-05
-7.39722e-05
-2.23718e-05
-4.28827e-06
-7.43158e-05
-1.58094e-05
5.60065e-05
-2.41019e-05
5.20149e-05
4.58725e-05
-3.16431e-05
0.000122278
2.89967e-05
1.2071e-05
-2.74094e-05
-3.44675e-05
-3.202e-05
5.98459e-05
4.27898e-05
-2.54271e-05
-1.6286e-05
4.25265e-05
4.55983e-05
-7.08048e-05
-4.53843e-05
-1.75916e-05
6.00135e-05
3.70808e-05
4.36972e-05
-7.64523e-06
2.17555e-05
1.4843e-05
1.4781e-05
3.49518e-05
1.44989e-05
-7.17354e-05
5.90796e-05
3.93526e-05
-1.62126e-05
4.7453e-05
-1.8456e-05
-3.84238e-05
8.46091e-05
5.78985e-05
5.29934e-05
-2.82949e-05
-1.40264e-05
-3.38175e-06
6.56871e-05
1.70163e-05
1.81666e-05
-1.45185e-05
-3.22155e-05
8.30193e-06
5.70648e-05
3.72087e-05
6.89619e-05
3.92866e-05
3.0786e-05
-1.59347e-05
4.17499e-05
8.47259e-06
-3.21823e-05
-1.07549e-05
-1.45925e-05
5.39316e-05
1.21894e-05
2.11238e-05
-2.64747e-05
1.12988e-05
-2.39079e-05
-1.44511e-05
1.0998e-05
-7.73533e-06
4.68991e-06
1.68595e-05
6.67062e-05
1.5799e-05
-0.00010758
-8.24989e-05
6.52298e-06
-5.85073e-05
5.17324e-05
1.84868e-05
1.6678e-05
-7.07677e-05
5.68549e-06
-1.86226e-05
-4.33426e-05
5.83279e-05
-4.15358e-05
-7.76744e-05
-1.33209e-05
-3.74748e-05
-1.09989e-06
5.06307e-05
3.43452e-05
5.21396e-05
2.95318e-05
4.7144e-05
-2.02376e-05
0.000134813
5.5166e-05
-3.82711e-05
-1.12209e-05
0.000111733
1.12772e-06
-1.38337e-05
-2.07326e-05
-1.05343e-05
5.75115e-06
2.51083e-05
-6.4718e-05
1.22248e-06
0.00011825
2.02316e-05
-6.96788e-05
-8.34586e-05
9.06892e-05
4.29546e-05
-6.09942e-05
-2.33634e-06
4.52413e-06
-2.48621e-05
-7.49836e-05
-6.30121e-06
3.3979e-05
6.28864e-05
-2.65893e-06
-2.97546e-05
-6.67728e-05
-1.08312e-05
7.42334e-06
3.03179e-05
-1.26915e-05
1.26481e-05
-3.24743e-05
-1.54036e-05
4.65962e-05
-6.06524e-07
-7.33229e-05
-3.61167e-05
3.19347e-05
5.07119e-05
5.52051e-05
-3.86608e-05
-2.71014e-05
-1.73191e-06
4.00431e-05
-1.28826e-05
1.15238e-05
2.75392e-05
1.51003e-05
2.02362e-05
3.27815e-05
-0.000103583
-2.37206e-05
5.62994e-05
-3.56047e-05
-8.56416e-05
0.000101618
-2.90705e-05
2.15786e-05
-5.19505e-05
6.2933e-06
-5.95589e-05
3.80201e-06
-4.01158e-05
2.21784e-05
-9.73779e-06
6.35826e-05
-2.76127e-05
-2.54391e-05
9.06728e-05
-5.55883e-05
-3.51444e-05
1.47808e-05
-2.30941e-05
3.46848e-05
-4.10143e-05
-1.09319e-05
2.98412e-05
3.45645e-05
-4.7846e-05
-5.78738e-05
-3.72985e-05
3.58619e-05
-1.02366e-05
-1.76759e-05
3.83472e-05
4.55056e-06
-3.07262e-05
-6.31746e-05
6.19085e-06
-5.68884e-05
0.000120349
-0.000117729
-6.80871e-05
1.01873e-05
-1.02164e-05
2.82159e-05
-1.96021e-05
-6.25604e-06
3.50745e-05
9.93104e-06
-5.9648e-05
5.40576e-05
-2.97572e-05
-7.26315e-07
-9.39064e-06
-2.64798e-05
5.89003e-05
9.35845e-05
7.95012e-05
-1.68921e-05
-6.82931e-05
-7.77042e-05
4.75617e-05
-1.31712e-06
1.17451e-05
5.16308e-05
-6.31509e-05
2.21429e-05
3.45721e-05
-3.89623e-05
4.9273e-05
9.85339e-06
-2.73692e-05
-7.18011e-05
-2.20747e-06
9.41253e-06
5.68597e-05
-2.01401e-05
-8.62195e-06
7.08946e-06
9.574e-07
-2.91979e-05
-3.67719e-05
9.86969e-07
-7.08317e-06
-7.7707e-05
4.07125e-05
2.28039e-05
-2.33533e-05
-2.82732e-05
6.35593e-06
-3.10612e-05
-2.37785e-05
5.87654e-05
3.77756e-05
-8.88546e-05
1.88742e-05
2.82152e-05
2.42069e-05
-1.97265e-05
3.13716e-05
2.67725e-05
-2.78915e-05
-1.14414e-05
4.39797e-05
-1.84726e-05
6.28969e-06
-9.41614e-06
3.67074e-05
-1.65388e-05
-2.21913e-05
-3.26342e-05
2.11543e-05
-9.0529e-05
-2.25267e-05
7.17794e-06
-1.67803e-05
-5.12952e-05
-4.15267e-05
3.0258e-05
1.87582e-05
1.34516e-05
6.79974e-05
0.000103677
-2.68694e-05
-5.62214e-05
-7.36804e-06
-8.72894e-06
-8.22055e-06
-0.000119192
3.07653e-05
9.97079e-05
7.93556e-05
2.3524e-05
2.89548e-06
3.23568e-05
6.61879e-06
-1.27404e-05
-1.12371e-05
3.50201e-06
6.08944e-05
-6.73498e-06
5.99331e-05
-9.10845e-06
-4.93432e-05
-1.25013e-05
-1.79207e-05
3.41781e-05
-3.37977e-05
7.39552e-06
5.9454e-05
0.000102923
1.58979e-05
2.07429e-06
6.60836e-05
-5.49528e-05
-6.42202e-05
4.83613e-06
5.86052e-05
-3.53621e-05
-0.000113618
-3.2186e-05
8.25268e-06
3.03728e-05
4.09468e-06
1.2588e-05
-2.5791e-05
4.03041e-06
-1.99422e-05
-0.000115459
-8.30262e-06
2.3432e-05
1.67678e-05
-9.90008e-06
-1.77944e-05
3.41069e-05
5.3838e-05
-8.89646e-07
-3.26863e-05
-1.44828e-05
1.08394e-05
2.86293e-05
1.41957e-05
-1.13213e-05
4.36334e-05
-9.69972e-06
4.36597e-05
-6.26082e-06
-6.49592e-05
8.33402e-05
7.37363e-06
-2.33591e-05
-5.29964e-05
8.21939e-06
-7.67075e-05
-5.47341e-05
1.6999e-05
-2.35285e-05
6.93039e-05
-5.89243e-05
-1.58966e-05
-3.797e-06
-4.36553e-05
1.75019e-06
6.90878e-06
-1.56341e-05
-1.26816e-05
-6.31344e-06
-2.87475e-05
6.3584e-05
-1.27363e-05
2.98872e-05
-1.94584e-05
0.00010666
-6.87316e-05
2.64263e-06
7.97831e-05
-7.28982e-05
-2.11622e-05
-1.82865e-06
-5.65476e-06
-3.07192e-05
-1.65775e-07
6.13097e-05
-4.53605e-05
-3.93717e-06
2.74233e-05
5.10013e-05
6.30168e-06
2.15231e-05
-5.93145e-05
-4.52384e-05
-4.56916e-05
-4.39744e-05
-2.38915e-05
-5.0343e-05
-2.24269e-05
-6.2891e-05
1.11952e-05
0.000117078
1.08844e-05
1.60339e-06
7.11589e-06
-1.24837e-05
-9.7961e-05
1.17274e-05
-2.4335e-05
-6.52866e-05
-4.57343e-05
9.77495e-05
-2.84507e-05
2.46854e-05
2.89711e-05
-3.3951e-05
9.19258e-05
-5.06385e-05
-3.13995e-05
4.17931e-07
2.2626e-05
5.23942e-05
-4.63508e-05
3.01935e-06
-7.25872e-05
3.62421e-05
4.53797e-05
5.10276e-05
4.96124e-05
1.14619e-05
6.31448e-06
1.38571e-05
1.41468e-06
1.35627e-05
-5.943e-05
-5.26092e-05
-3.14449e-05
3.68989e-05
-1.13063e-06
4.3941e-06
1.65974e-05
1.01096e-05
-4.5673e-05
-5.67073e-05
-2.16055e-05
3.75393e-06
3.02104e-05
2.47173e-05
-3.70553e-05
-4.68161e-05
-8.03273e-05
-3.89203e-05
8.46446e-05
4.35204e-05
1.98975e-05
-8.17562e-06
-6.95745e-06
-5.38768e-05
3.58437e-05
-6.18515e-05
7.9043e-05
-1.5948e-05
-3.99175e-05
-6.26176e-05
3.51218e-05
5.15335e-05
1.97045e-06
-3.4715e-06
-9.94967e-06
5.45719e-05
-4.3594e-05
-3.20035e-05
3.58506e-05
-2.33701e-05
-7.19342e-06
3.16274e-05
-2.36788e-05
4.79085e-05
6.11597e-05
-1.50184e-05
5.83363e-05
-1.60115e-05
-5.555e-05
-4.11177e-05
3.92951e-05
8.73663e-05
-9.01869e-06
2.39065e-05
5.31236e-05
-2.11829e-06
3.75921e-05
-6.11137e-05
-5.37818e-05
4.7565e-05
-2.97426e-05
-7.41598e-05
-1.30137e-05
3.82913e-06
-4.95902e-05
-1.00632e-05
1.48064e-05
3.36766e-06
-4.77558e-05
-3.26615e-05
4.77966e-06
4.40956e-05
4.04306e-05
-4.65772e-05
-4.65794e-05
9.95409e-06
6.58093e-05
1.77756e-05
-1.76015e-05
-0.000102062
4.74704e-05
-2.01669e-05
-7.77538e-06
-8.79914e-06
4.50334e-05
-5.59213e-06
-5.70051e-05
-1.93104e-05
-3.39667e-05
4.75904e-05
2.16512e-05
-2.22096e-05
-2.47785e-05
-2.54152e-05
-5.89108e-06
-1.1566e-05
-4.13184e-05
-4.02362e-05
1.2056e-06
-4.48263e-05
2.04252e-05
3.3807e-06
-2.82917e-05
3.01647e-05
9.34838e-06
-6.71307e-05
-4.05739e-05
7.09331e-05
-3.39552e-05
-2.67515e-05
2.17739e-05
1.56362e-05
1.44396e-05
-8.90181e-06
-1.19936e-05
1.44327e-05
8.70281e-05
-9.70089e-07
1.2422e-05
-5.5928e-05
-1.92777e-05
3.90813e-05
3.06987e-06
-4.05503e-05
7.56595e-06
6.72849e-05
3.94987e-05
-7.47541e-05
-3.48645e-05
2.46887e-05
-5.16159e-05
3.7672e-06
-4.08547e-05
-1.83189e-05
8.32833e-05
-3.53503e-05
-3.56359e-05
-9.10205e-06
-2.37036e-05
-7.61579e-05
-4.31736e-05
-3.44529e-05
3.03319e-05
-5.93211e-05
-4.43421e-05
-1.3849e-05
2.80142e-05
4.43454e-05
7.11239e-06
-4.18862e-07
-3.3796e-05
5.63174e-05
4.62114e-05
-7.51623e-05
0.000106831
-4.85461e-05
-1.38163e-05
-8.41217e-07
-1.47608e-05
-6.57004e-05