# vtk DataFile Version 1.0
Net Charge Density
ASCII
DATASET STRUCTURED_POINTS
DIMENSIONS 256 128 1
ORIGIN 0 0 0
SPACING 0.15625 0.15625 1
POINT_DATA 32768
SCALARS rhonet float
LOOKUP_TABLE default
-3.89654e-06
-9.51276e-05
0.000144792
9.6322e-05
3.56846e-05
0.000120451
-0.000118445
9.1858e-05
0.000154216
2.28995e-05
-3.75606e-05
0.000108725
0.00010382
7.94457e-05
0.000109346
4.99606e-05
8.77429e-05
0.000140236
4.05877e-05
-6.79099e-05
-6.40773e-06
0.00014186
0.000144767
4.77827e-05
3.72678e-05
2.07424e-05
7.74217e-05
9.05889e-05
-1.35219e-05
-7.27428e-05
5.23028e-05
3.97241e-05
4.3669e-05
6.90081e-05
1.24418e-05
0.000171713
1.68072e-05
7.2873e-05
7.73575e-05
-5.53066e-06
2.2932e-05
6.83218e-06
0.000136403
9.39812e-05
2.09383e-05
1.86827e-05
-3.16135e-05
6.95548e-05
0.000116214
7.88723e-05
-1.20074e-05
2.49777e-05
8.34423e-05
0.000148996
3.55954e-05
1.75046e-05
0.000151011
-5.17471e-05
5.67827e-06
7.16954e-05
5.02801e-05
6.06023e-05
7.16804e-06
8.01799e-05
8.22489e-05
-8.03834e-05
4.41819e-05
0.000136175
4.09955e-05
4.82835e-05
7.92342e-05
3.67113e-05
-2.69158e-05
4.96674e-05
-1.14786e-07
5.11559e-05
4.20862e-05
-3.8308e-05
9.21621e-05
0.000106615
8.71844e-05
2.54083e-05
7.49619e-05
0.000101106
4.54684e-05
-4.48013e-06
-1.66914e-05
6.70485e-05
0.000119669
-2.34875e-05
9.00028e-05
-1.47956e-05
-3.90527e-05
-6.21472e-06
-8.99171e-05
5.22719e-05
0.000157961
2.4098e-05
9.16881e-05
-2.49443e-05
0.000157724
9.09191e-05
-3.16976e-06
9.47254e-05
3.90384e-05
0.000130971
-2.58209e-07
-6.85491e-05
2.66253e-06
7.39996e-05
0.00013342
5.79278e-05
2.02984e-05
3.31155e-05
8.04212e-05
4.36594e-05
1.22658e-05
7.4969e-05
5.09605e-05
4.32277e-05
-3.98804e-05
-3.45634e-05
4.04443e-05
2.44901e-05
0.00011572
6.60873e-05
1.82552e-05
8.13098e-05
1.99638e-05
-1.88098e-05
0.000119796
9.26165e-05
-2.24425e-06
3.77486e-05
2.03245e-05
6.79644e-06
4.46088e-05
-3.1916e-05
4.68967e-05
-1.15025e-05
-4.98412e-05
2.32956e-05
2.09622e-05
0.000160761
9.88223e-05
2.06369e-06
0.000137836
1.15241e-05
-3.1124e-05
0.000132418
1.78274e-05
2.91311e-05
0.000108428
-8.34581e-06
3.45046e-05
4.32306e-05
5.74614e-06
3.42712e-05
-5.27641e-06
1.75424e-05
7.67778e-05
2.50086e-05
0.000112709
-2.20692e-05
3.25855e-05
2.55229e-05
5.84618e-05
-6.12721e-05
0.000105448
0.000137296
2.50289e-05
4.32238e-05
7.45824e-05
0.000111579
-2.02684e-05
-8.13312e-06
8.72932e-05
-8.23222e-05
1.15581e-05
3.31807e-05
8.87692e-05
-7.05998e-05
-3.18107e-05
5.65336e-06
1.0499e-05
7.98535e-05
4.14198e-05
7.20923e-05
0.000102554
7.46858e-05
2.48844e-05
0.000198125
8.16124e-05
-6.56995e-05
6.24199e-05
0.000201229
4.75227e-05
8.32758e-05
7.86667e-05
-1.63087e-05
5.95993e-05
0.00014917
4.39015e-05
3.83357e-05
-1.00755e-05
6.97707e-05
-5.98875e-05
5.34232e-05
6.86806e-05
8.57906e-05
6.81024e-05
0.000137439
0.000106097
-2.40521e-05
0.000111081
-0.000131281
0.000102691
9.90946e-05
-5.28729e-05
-3.79215e-05
8.69745e-05
0.000114877
0.000176992
3.40522e-05
7.95291e-05
5.67455e-05
-3.69139e-05
-1.51403e-05
8.69033e-05
6.86068e-05
6.22822e-06
4.16541e-05
2.36374e-05
2.60696e-05
0.000121307
-3.55705e-05
-2.05773e-05
2.75015e-05
5.94512e-05
8.97946e-06
1.84992e-05
8.66945e-05
-5.82665e-05
-3.07336e-07
2.659e-05
-1.44095e-05
-2.21957e-05
-3.95462e-05
0.000128655
-4.29619e-06
2.10486e-05
-3.85131e-05
0.000102293
2.14379e-05
2.40525e-05
4.1861e-05
-0.0001049
2.47041e-05
-6.30284e-05
-2.51195e-05
-2.38868e-05
5.12262e-05
-2.60449e-05
-7.5764e-05
4.98935e-05
-6.60464e-05
-4.29004e-05
2.33415e-05
-5.99085e-05
-8.02728e-05
3.00258e-06
-4.24265e-05
4.66232e-06
1.08911e-05
-2.15747e-05
-4.06057e-06
-5.82077e-05
-6.74936e-05
-0.000106139
-1.79203e-05
-2.00456e-05
-5.72714e-05
-2.52768e-05
7.72963e-06
-3.07409e-05
-8.53868e-05
-3.53891e-05
-8.36095e-06
2.74415e-05
-7.95685e-05
-6.67484e-05
2.31334e-05
-0.000103178
-3.37883e-05
1.98341e-05
-8.20332e-05
-5.15867e-05
-4.3841e-05
8.67259e-06
3.55996e-05
-2.47126e-05
4.87454e-06
-0.000112384
-3.1517e-05
3.88797e-05
-3.39412e-05
-6.5613e-05
-4.11926e-05
-3.17377e-05
2.98235e-05
-2.85321e-05
-3.54561e-05
-2.34862e-05
-0.00011611
1.48105e-05
-3.3793e-05
4.56303e-05
-5.12686e-05
-5.7285e-05
-3.73456e-05
-3.01478e-05
-6.05669e-05
-1.00288e-05
-7.96341e-05
-0.000109192
1.21043e-05
-4.39815e-05
9.01788e-06
-1.84356e-05
1.7242e-05
-5.13538e-05
-1.04343e-05
4.76099e-05
-2.54938e-05
5.74086e-05
2.16532e-07
-3.24125e-05
-5.04445e-05
-8.22557e-05
2.84828e-05
2.44656e-05
-6.16949e-05
-0.000158637
-4.16979e-05
-6.61239e-08
-1.6914e-05
8.77376e-06
5.33131e-05
3.15625e-06
-1.07943e-05
2.47142e-05
-5.96535e-06
3.43232e-05
-2.7312e-05
-6.84685e-06
-1.89478e-06
-4.36435e-05
-0.000106617
-3.96521e-05
-2.96772e-05
-3.55603e-05
1.64227e-05
-5.91242e-05
-4.27191e-05
-1.06718e-06
-6.00039e-06
5.43518e-05
-3.5424e-05
-7.13803e-05
-7.13196e-05
4.01703e-05
1.15475e-05
-5.23516e-05
-1.11548e-05
9.64548e-06
3.18988e-05
-8.5775e-05
1.39618e-05
-6.13793e-05
-7.74162e-06
-3.48631e-05
-1.67096e-05
-4.55659e-05
-6.96023e-05
1.70245e-05
-4.88098e-05
-2.07969e-05
1.5982e-05
-1.05535e-05
-2.35455e-05
-1.24413e-05
-3.31043e-05
-4.6012e-05
-1.33581e-05
-4.22454e-05
-8.32346e-06
-5.94476e-05
-7.8258e-05
8.69716e-06
-2.01992e-06
-8.38249e-05
1.05486e-05
-3.22356e-05
-4.36765e-05
-0.000117681
-8.72579e-06
-3.99582e-05
-3.83075e-05
-7.16746e-05
9.37097e-06
3.00054e-05
-1.70411e-05
-2.39993e-05
-1.85613e-06
-5.11229e-05
-2.02558e-05
-8.13487e-05
-6.40948e-05
3.62428e-05
-8.02708e-05
-7.5635e-06
2.37463e-05
2.21167e-05
-5.27814e-05
-2.42528e-06
3.60708e-05
-9.46566e-05
1.02371e-05
-2.21482e-05
3.97029e-05
-4.13514e-05
-2.55484e-05
-5.70144e-06
3.04058e-05
-6.90699e-05
-4.77675e-05
3.67508e-05
-4.79678e-06
2.05915e-06
-4.86568e-05
-0.000107547
-6.60244e-05
-2.66007e-05
-2.24797e-05
-9.32987e-06
-1.88574e-05
-0.000101449
6.32252e-06
3.69594e-05
4.61075e-06
-1.08487e-05
-2.36545e-05
-8.50846e-05
-3.90905e-05
4.811e-05
-6.97759e-06
-7.51885e-05
-6.46277e-05
-4.37906e-05
3.07566e-05
-5.53513e-05
1.83098e-06
-5.12167e-05
9.71669e-05
1.17976e-05
-4.14068e-05
-5.22404e-05
-4.83996e-05
-4.73998e-05
3.21255e-05
-3.50827e-05
-7.29862e-05
1.69803e-06
-2.53877e-05
-1.98884e-05
4.50551e-06
-1.732e-05
7.05679e-05
5.70894e-05
-6.70662e-05
-3.48977e-05
-2.73386e-05
-7.02043e-05
-2.06063e-05
2.42672e-05
8.5886e-05
-8.70345e-05
6.93451e-06
-4.34534e-05
-3.62702e-05
6.90323e-05
3.75879e-05
-6.27582e-05
-4.99154e-06
2.55418e-05
-5.11217e-05
2.26247e-05
-1.34832e-05
-4.80209e-05
-1.98239e-05
3.0552e-06
3.7325e-05
3.42678e-05
-1.23483e-05
-2.31676e-05
-0.000132199
-1.66357e-07
-7.60669e-06
5.12581e-05
-7.35302e-06
-7.36319e-05
5.01738e-06
-3.30424e-05
-1.99093e-06
5.00253e-05
-7.7982e-06
-2.33888e-05
-8.48062e-06
1.05391e-06
-1.92297e-05
7.13234e-05
-5.15236e-05
7.82264e-06
3.11629e-05
6.53433e-05
-4.67903e-05
-2.9064e-05
-1.14905e-05
-2.49571e-05
-9.34282e-05
-2.04819e-05
3.51586e-05
4.88632e-05
3.64077e-05
-1.64523e-05
3.77698e-05
6.1458e-05
-4.75245e-05
4.4845e-05
4.40085e-05
9.82278e-06
-5.10861e-05
1.23071e-05
2.34443e-05
7.04308e-05
4.96681e-05
-3.57146e-05
2.25287e-05
5.2742e-06
-2.51156e-05
4.80091e-05
3.40395e-05
2.11633e-05
-2.89197e-05
-7.34258e-05
2.16749e-05
3.48731e-05
1.42085e-06
-4.63352e-05
1.81724e-06
-1.6571e-05
5.22443e-05
1.92712e-05
-4.25098e-05
-9.05939e-05
6.88445e-06
2.94286e-05
9.43278e-06
3.90755e-05
-4.01766e-05
2.79776e-05
-3.30704e-05
9.0275e-05
1.87061e-05
2.19357e-05
-2.38945e-05
3.89221e-05
7.95067e-05
-1.43028e-06
-1.07866e-05
-4.31224e-05
-5.63419e-05
3.65558e-05
5.6912e-06
-2.97657e-05
3.18503e-05
-3.75101e-05
-1.97687e-05
6.36958e-05
5.06415e-05
-4.80592e-05
-4.18768e-05
-9.31218e-06
-2.63562e-05
-1.3366e-05
5.09447e-05
7.41072e-05
-1.38805e-05
-5.52132e-05
-6.02391e-05
2.25469e-05
4.01654e-05
-3.56472e-05
4.60858e-05
6.0403e-05
1.00422e-05
-2.72851e-05
-6.84019e-05
1.03845e-05
-3.90665e-05
-6.67314e-05
1.89327e-05
-3.86646e-05
-7.26084e-05
1.55346e-05
3.44657e-05
-9.18191e-06
-2.52386e-05
3.49992e-05
6.71943e-05
-7.81391e-06
-2.34846e-05
1.90871e-05
-3.45567e-05
-3.24682e-06
3.17623e-05
-4.33621e-05
-4.44565e-05
-1.29167e-05
6.19075e-05
-1.54721e-05
-1.92423e-05
-9.34233e-07
1.07804e-05
-2.67862e-05
6.43283e-05
6.28759e-07
3.16114e-05
-3.45437e-05
-2.02107e-05
3.29816e-05
-8.92999e-06
-5.33776e-05
-6.58385e-05
-1.97741e-05
2.38325e-06
3.65472e-05
8.36805e-06
-1.8779e-06
1.48292e-05
-2.75734e-05
4.24776e-05
2.79523e-05
9.69104e-05
6.65832e-05
1.94265e-05
1.45668e-05
-1.36637e-05
5.90177e-05
5.77692e-05
-3.53305e-05
8.6556e-05
-1.88482e-05
-2.10227e-05
-5.39365e-05
1.12338e-05
-1.22988e-05
7.0316e-05
-1.07873e-05
6.14929e-06
5.77933e-05
3.47516e-05
-3.56392e-05
-5.85581e-06
4.3827e-05
2.99952e-05
1.48881e-05
3.09432e-06
-6.29966e-05
1.44142e-05
-9.34469e-05
4.10879e-05
-3.34163e-05
-7.29719e-05
6.78631e-06
-4.31375e-05
3.26063e-05
-5.40692e-05
-3.51892e-05
-7.38096e-06
-3.46785e-05
7.78178e-06
5.28591e-05
1.66988e-05
-1.61491e-06
7.61892e-05
-2.89606e-06
5.27893e-05
3.30997e-05
2.69051e-05
3.20117e-05
-4.14015e-05
-7.91212e-05
6.70378e-06
-3.71065e-05
3.38536e-07
3.1288e-05
2.55895e-05
4.62431e-05
-7.34441e-06
3.85566e-05
-1.82483e-05
8.604e-05
-3.51756e-05
-2.42114e-05
-2.44785e-05
3.96881e-05
3.96362e-05
-5.59562e-06
-1.59824e-05
5.26488e-05
-3.12824e-05
-9.51323e-06
1.32085e-05
3.0308e-05
4.01443e-05
-6.21303e-05
6.55756e-06
-4.02809e-05
7.68167e-05
-2.30573e-05
2.42714e-06
-2.36238e-05
-7.65722e-06
1.05542e-06
-7.58457e-05
1.89058e-05
4.24925e-05
2.7332e-06
-4.68805e-05
-0.000111356
2.32968e-05
1.92826e-05
1.66963e-06
4.11413e-05
-1.26259e-05
3.11481e-06
-2.15389e-05
-7.419e-05
3.57797e-05
1.81668e-05
-4.43209e-05
1.3806e-05
2.49426e-05
-1.40065e-05
-5.45264e-05
-1.59673e-05
4.84828e-05
-4.49969e-06
-0.000139603
5.7974e-05
3.08063e-05
0.000100899
-3.7275e-05
3.8272e-05
1.96723e-05
-2.19459e-05
-3.16994e-05
-3.15028e-05
5.7979e-05
8.84752e-05
-9.06736e-06
-5.99888e-05
9.21858e-06
8.46444e-06
-1.81608e-08
-2.0785e-05
-3.90378e-05
0.000130275
-3.43217e-05
-4.70518e-05
5.37112e-05
-2.79653e-06
2.82307e-06
-3.79186e-05
-6.05409e-05
4.75424e-05
4.84365e-05
-1.75369e-05
3.7463e-05
-5.19099e-05
4.18172e-05
3.39496e-05
-6.99724e-05
2.73653e-05
3.88061e-05
1.67806e-05
-5.26785e-05
6.28696e-05
-2.19624e-05
-4.31011e-05
-7.4032e-06
-2.66784e-05
4.25465e-05
3.65009e-06
2.7573e-05
-4.7388e-05
-6.43707e-06
3.03094e-05
-2.26304e-05
-8.19347e-05
-4.9582e-05
1.36234e-05
3.3637e-05
4.53521e-05
-3.78169e-05
6.72048e-05
-2.02057e-05
-6.23041e-05
4.74693e-05
4.62763e-05
1.24056e-05
3.82876e-05
2.15024e-05
5.87143e-05
-6.50004e-05
-4.25667e-05
-1.34117e-05
4.39059e-05
4.78699e-05
-2.23202e-05
-6.05178e-05
1.98302e-06
-2.4375e-06
-3.0012e-05
1.48918e-05
2.92046e-05
7.28872e-05
7.06638e-05
-3.58251e-05
-0.000140627
2.58457e-05
1.20362e-06
-2.88257e-05
-4.69701e-05
5.72426e-05
3.12587e-05
1.75568e-05
-0.000107817
-1.58474e-05
1.13322e-05
3.99521e-05
3.28139e-05
-4.30106e-05
3.20361e-05
3.74883e-05
-3.91934e-05
2.83308e-05
3.71938e-05
-1.37141e-05
3.56368e-05
-5.4416e-05
8.30449e-05
3.03242e-05
-1.94273e-05
-2.67286e-05
6.84279e-05
4.12182e-05
-2.91595e-05
3.35346e-05
3.92138e-05
3.68368e-05
-3.48373e-05
-2.81513e-05
1.4167e-05
3.52946e-05
-7.15668e-05
-2.16153e-05
4.60048e-05
3.64993e-05
2.31863e-05
-3.12359e-05
-7.13484e-05
2.25479e-05
-3.52727e-05
7.69859e-05
-4.16435e-05
-1.37857e-05
7.45142e-05
-5.4067e-05
4.00399e-06
-1.77848e-05
-5.58048e-05
2.01226e-05
5.95965e-06
5.05822e-05
6.3116e-05
-6.58254e-05
8.14192e-05
-4.32245e-05
-2.44335e-05
2.67196e-05
4.39421e-06
9.56818e-06
7.65512e-06
4.39095e-06
-4.2216e-05
2.17024e-05
1.01279e-05
-1.56353e-05
-7.88143e-05
-2.79716e-05
-7.33079e-06
2.62831e-05
6.22857e-06
2.38401e-05
-8.04104e-06
5.26162e-05
3.00963e-05
-3.07957e-05
-8.68589e-05
1.14748e-05
3.87328e-05
1.11607e-05
-2.85619e-05
-9.12522e-06
-2.48174e-06
2.21183e-05
-3.22959e-06
2.53444e-05
2.25467e-05
3.20964e-05
-2.0874e-05
-3.06277e-06
6.05546e-06
-3.41376e-06
3.49667e-05
-2.44875e-05
5.34739e-05
1.96629e-05
1.27885e-05
-1.15691e-05
2.92524e-05
2.8708e-06
3.39586e-05
-1.87168e-05
-2.88652e-06
-6.90413e-05
2.46686e-05
-5.03869e-06
-1.26837e-05
2.05979e-05
-2.63395e-05
-2.66149e-06
-3.02473e-05
-7.38938e-05
-1.16555e-05
0.000124287
-9.67176e-05
2.30568e-05
4.08882e-05
1.12082e-05
1.89699e-05
2.29748e-05
-6.504e-05
-1.85566e-05
-3.58942e-05
9.88774e-06
-2.25088e-05
-0.00011462
5.0644e-05
-0.000120174
-5.21548e-05
0.000129994
-2.85548e-05
-3.29313e-05
1.39814e-05
-3.08768e-06
-4.58432e-06
-6.87178e-05
5.01052e-07
2.54058e-05
-3.06807e-05
-4.83695e-05
-2.09832e-05
3.77465e-05
3.99076e-05
1.09908e-05
-3.37755e-05
2.43064e-05
4.91922e-05
4.5861e-05
-7.1392e-05
-6.57423e-05
-4.48677e-05
5.14658e-05
2.45089e-06
-1.54693e-06
-6.96713e-05
3.42261e-07
-1.04234e-05
6.89435e-06
-2.29041e-05
-2.3552e-06
-3.0622e-05
3.27411e-05
-3.22692e-06
-1.03372e-05
-2.52567e-05
2.84621e-05
9.52234e-05
-3.02622e-05
3.2171e-05
4.4381e-05
-4.54085e-05
-0.000101101
-3.30771e-05
0.00011101
6.25446e-05
-5.28279e-05
-0.000107186
-1.18127e-05
6.85669e-05
3.46114e-05
-5.40467e-05
-5.21376e-05
4.75175e-05
-4.06374e-05
-0.000119435
6.1203e-05
-1.81566e-05
-3.11726e-05
0.000105493
-4.54737e-05
-9.29437e-05
-5.38456e-05
9.50566e-06
-5.54987e-05
1.67234e-05
4.28152e-06
-7.23694e-05
6.52438e-06
4.59247e-05
6.77758e-06
-2.06672e-06
5.32221e-05
2.83381e-05
-3.75983e-05
-4.85511e-05
0.000104193
-1.62803e-05
-5.72822e-06
-2.96998e-05
-2.67278e-06
-4.58122e-05
8.228e-06
-1.31114e-05
-4.38883e-05
-3.36713e-05
-5.49543e-05
4.80606e-05
-3.43904e-05
5.50933e-05
-3.26775e-05
-2.4994e-05
-9.60962e-06
3.26964e-05
-4.34387e-05
8.21739e-05
3.99002e-06
1.01073e-05
-2.64163e-05
-1.68534e-06
5.18317e-05
-5.05236e-05
7.65342e-05
-2.69972e-05
-2.84482e-05
5.25324e-06
1.91289e-05
5.75265e-05
-1.55072e-05
1.41476e-05
1.54797e-05
9.67544e-05
-2.60591e-05
2.79746e-06
-6.86486e-05
-4.36418e-06
5.35534e-06
-6.23055e-07
-1.1227e-05
2.76115e-05
-7.06454e-05
2.38863e-05
3.6464e-05
-5.86105e-06
-1.47322e-05
5.85363e-05
-1.46404e-06
5.05475e-07
-8.36339e-06
-6.68819e-05
-7.4585e-06
-5.66773e-05
5.49143e-05
-1.55682e-05
-6.51167e-05
1.93965e-05
-2.5009e-05
1.49551e-05
4.44496e-05
-8.87853e-06
-5.64919e-05
-7.07046e-05
-8.34162e-06
-2.96299e-05
-2.15287e-06
-1.83217e-05
-1.89361e-06
-0.000102778
8.74815e-06
3.24827e-05
3.07965e-05
-0.000103662
-3.6156e-05
2.02428e-05
8.39113e-05
4.75242e-06
-1.31457e-05
3.19696e-05
7.14557e-07
-3.71368e-05
-7.51378e-05
-6.92119e-05
-2.21259e-06
-7.09706e-05
1.36707e-06
-4.37514e-05
5.21006e-05
-3.20332e-05
-2.11223e-05
9.38238e-06
-1.06066e-06
4.85114e-06
-2.59298e-05
5.72975e-05
-2.03836e-05
4.02202e-05
1.71226e-05
-4.3611e-05
4.79142e-06
-4.09902e-05
-3.4878e-07
2.30945e-05
-3.31625e-05
1.34486e-05
1.23589e-05
-2.61044e-05
-4.63808e-05
1.17682e-05
-4.40202e-05
0.000100773
4.1617e-05
5.95761e-05
5.72717e-06
3.63542e-06
3.72173e-05
-2.83868e-05
-2.65322e-05
-3.87039e-05
-3.3244e-05
-2.94461e-06
-4.8345e-06
-7.42383e-05
-9.21182e-05
-4.12929e-05
9.36042e-05
1.79686e-05
2.46143e-05
5.079e-05
-3.90919e-05
-4.8694e-05
-6.07774e-05
2.9187e-05
-7.0152e-05
2.39771e-05
5.71003e-05
1.4381e-05
-8.54445e-05
6.48925e-05
5.64102e-06
1.15014e-05
-0.000120717
5.33746e-05
7.36077e-05
5.39131e-06
1.38737e-05
1.18417e-05
-9.6513e-06
3.66956e-05
-3.03432e-05
4.71817e-05
6.17245e-05
-4.68094e-06
-4.04327e-05
-2.98406e-05
4.83426e-06
-1.19209e-06
4.36943e-05
-1.84949e-06
-1.13774e-05
-1.70611e-05
7.82477e-05
-4.58339e-06
1.79141e-05
-3.62856e-05
-7.78637e-05
7.3835e-05
-9.19307e-05
-5.20807e-06
2.09287e-05
2.30584e-06
7.05891e-05
3.83814e-05
7.42113e-06
5.50145e-05
-1.01448e-05
4.60943e-05
-1.68377e-05
-5.88747e-05
-4.91895e-05
5.14218e-05
5.45884e-05
-1.9853e-05
5.81007e-05
3.02006e-05
1.38805e-05
2.24962e-05
6.25571e-05
6.90157e-06
-8.80085e-05
-1.34255e-05
-5.00795e-06
4.86999e-05
5.99248e-05
6.30916e-05
1.42655e-06
2.14425e-05
-2.66382e-05
-9.90415e-06
-6.22047e-05
-1.60283e-05
3.25948e-05
-3.85358e-05
-1.90414e-05
5.31543e-05
-2.28164e-05
1.54094e-05
-4.23557e-05
-5.64614e-07
-5.11485e-05
-1.07914e-05
-0.000114607
2.06348e-05
1.91701e-05
7.28546e-05
2.73273e-05
-4.94911e-05
5.05785e-05
5.27876e-05
6.41992e-05
-7.99028e-06
4.43974e-05
-4.86515e-05
-2.58868e-05
-3.12888e-05
9.76644e-05
-4.46024e-05
-4.87096e-05
2.70449e-05
-5.04586e-05
1.36555e-05
-9.01835e-05
-0.000131355
6.04792e-05
5.67497e-05
-1.70091e-05
2.47731e-05
-9.10845e-06
5.16698e-05
-8.06585e-05
3.82906e-05
3.7834e-05
1.59075e-05
-7.97585e-06
-6.65546e-06
3.57418e-05
3.13774e-05
-9.32614e-05
-4.72956e-05
-9.38082e-05
-4.97691e-05
6.84748e-05
-3.54393e-05
9.14559e-06
-3.66225e-05
3.87209e-05
1.69346e-05
4.4761e-05
-5.40488e-05
2.94936e-05
6.61319e-05
1.22408e-05
-6.64287e-05
1.13365e-06
1.48169e-05
-1.36937e-05
6.08946e-05
-9.08738e-07
7.89308e-05
9.09704e-06
5.26159e-05
-9.66358e-05
3.41135e-05
6.60564e-06
-1.27819e-05
-4.43459e-05
-2.06705e-05
3.15043e-06
-9.30973e-07
-6.3061e-05
-0.000100799
-4.15875e-05
-9.15084e-05
-4.81863e-05
5.62919e-05
-1.52459e-05
-5.22912e-05
-2.41199e-05
-1.08292e-05
-4.5769e-05
-4.23095e-05
1.19054e-05
2.83609e-05
-1.41363e-05
-5.28244e-05
-6.13473e-05
1.77321e-05
1.07329e-05
-2.08277e-05
5.96299e-05
1.79093e-06
2.51201e-05
-2.36356e-05
5.88673e-05
3.18955e-05
4.76108e-05
-7.31893e-05
7.22462e-05
-0.000100921
-6.24126e-06
6.49313e-05
8.48854e-06
3.23063e-05
-3.30678e-06
-4.32204e-05
2.37813e-06
1.99969e-05
-1.2729e-05
9.59332e-06
3.61403e-05
2.75425e-05
6.92137e-05
-2.72377e-06
-6.32235e-05
-6.14556e-06
-7.61123e-06
-1.02113e-05
4.45036e-05
5.20144e-06
2.67313e-05
-6.63009e-06
-4.79806e-06
-2.94804e-05
1.43545e-05
5.69003e-06
6.79197e-05
9.01206e-06
3.43912e-05
1.84246e-05
1.29039e-05
-4.46518e-05
3.4593e-05
3.36545e-05
1.93843e-06
-1.88095e-05
4.46875e-05
-5.2389e-05
6.75363e-05
7.74651e-05
6.37164e-06
8.13848e-05
-3.18105e-05
2.20671e-05
-1.73564e-05
-2.87811e-05
-6.86578e-05
1.19237e-05
2.47911e-05
1.23703e-05
-3.48673e-05
2.1678e-05
-2.2075e-05
-3.52506e-06
1.23349e-05
1.70944e-06
2.97128e-05
-6.88563e-05
-1.3374e-05
9.1896e-05
-3.43514e-05
1.47278e-05
-1.23628e-05
4.94574e-05
2.42062e-05
-4.44683e-05
5.05934e-05
0.000106778
9.66932e-05
6.52501e-05
8.89646e-07
-7.20727e-06
-1.14558e-05
6.66905e-05
-5.44812e-06
4.01795e-05
-2.33977e-05
4.17563e-05
-3.41277e-05
-2.13978e-05
6.28177e-06
-2.62643e-05
3.58215e-05
-8.93138e-05
4.69466e-05
-3.57556e-05
3.30249e-05
2.34644e-05
-9.97123e-05
2.21338e-05
3.57016e-05
-1.87461e-05
2.1326e-05
-6.78236e-05
2.71616e-05
-5.16979e-05
5.68151e-05
4.88439e-05
-1.74809e-05
3.80412e-05
4.54169e-05
1.17877e-05
-8.37981e-06
2.07489e-05
-2.05641e-05
5.28255e-05
-7.57058e-05
-4.26264e-05
-7.67258e-06
2.04984e-05
-1.54355e-05
-3.12331e-05
1.17398e-05
6.21646e-05
4.88077e-05
4.33566e-06
-0.00012757
-5.02244e-05
-6.86673e-05
-6.61002e-05
3.09136e-05
7.61505e-05
-7.01352e-05
-7.03009e-06
9.28505e-06
4.82404e-05
3.83996e-06
8.47329e-06
-6.75756e-05
-1.85829e-05
1.21739e-05
-8.66782e-06
-3.19516e-05
-1.42832e-05
3.18373e-06
7.32997e-06
1.82407e-05
2.56518e-05
-6.78843e-05
-4.71459e-06
3.49282e-05
-5.05327e-05
1.07933e-05
-1.50148e-05
-1.63049e-05
-2.95391e-05
9.53887e-05
2.63905e-05
-1.76693e-05
-2.15016e-05
-1.27989e-05
8.03289e-06
-1.35808e-05
2.63907e-05
-7.18562e-06
-1.90844e-05
2.17279e-05
5.39323e-05
-9.03429e-05
5.7904e-05
-1.44774e-05
-1.46057e-05
-3.83229e-05
-4.54386e-05
2.61617e-05
5.7482e-05
2.07163e-05
1.80579e-05
2.6194e-05
-7.22159e-06
-2.65968e-05
2.38705e-05
-3.81792e-05
-3.29993e-05
2.86612e-05
4.19572e-06
5.34144e-05
-1.29025e-05
-4.54567e-06
9.10495e-05
1.6332e-05
1.69139e-05
-4.63272e-05
3.55743e-05
-3.91715e-05
2.29459e-05
1.72221e-05
3.08617e-06
6.8058e-05
6.72811e-05
-1.70236e-05
-7.54697e-06
4.55874e-05
-1.23874e-05
-6.61251e-06
0.000122597
3.26282e-05
1.82125e-05
2.49492e-05
-5.22538e-05
-2.22388e-05
-5.70172e-05
1.30455e-06
7.69016e-06
2.41782e-05
1.07719e-05
-5.2068e-05
1.76703e-05
6.4493e-05
-6.11885e-05
5.44074e-05
-4.49321e-05
-7.05207e-05
6.23148e-06
3.27915e-05
4.70874e-05
1.3269e-06
1.32956e-05
-7.786e-05
-2.81835e-05
-6.89225e-06
0.000112601
3.68475e-05
-3.34254e-05
4.85631e-05
3.18349e-05
1.14891e-05
6.94902e-05
0.000133271
-7.38591e-05
-4.20362e-05
-1.68969e-05
2.04114e-05
8.13266e-06
-1.9554e-05
3.47546e-05
5.05911e-05
-6.30397e-05
-4.22688e-05
1.79629e-05
5.70348e-05
-6.66827e-07
2.83975e-05
-3.478e-05
-8.23165e-05
-3.16931e-05
-5.51023e-05
-1.69474e-05
6.43996e-05
-5.57771e-05
5.25212e-05
-0.00011234
-7.10646e-05
-1.52236e-05
-1.60271e-05
-3.59304e-05
5.28325e-05
4.40277e-05
-4.75498e-06
-6.05782e-05
-2.03252e-05
1.72122e-05
2.40909e-05
-2.15e-05
-3.80279e-05
1.8421e-05
-5.2297e-05
-1.48047e-05
-9.04262e-05
-1.86136e-05
-1.40985e-05
0.000121307
-2.54699e-05
5.25208e-05
3.79477e-05
3.11937e-05
-3.85309e-05
-5.1026e-06
-4.49666e-05
2.62946e-05
1.12429e-05
-1.86048e-05
1.74433e-05
-3.76215e-05
8.71089e-06
-3.1795e-05
7.14653e-05
-7.47017e-05
0.000101809
5.19641e-05
3.18055e-05
1.94152e-05
4.63665e-05
-3.00421e-06
1.62399e-05
7.99993e-05
3.6764e-06
-1.37994e-05
-5.21089e-05
-5.62182e-05
2.68223e-05
-3.78023e-05
-4.78232e-05
2.88635e-05
-2.68995e-05
-1.16546e-05
-5.02805e-05
3.10764e-05
-2.00594e-05
3.8109e-05
-8.71742e-05
-4.69054e-05
1.6719e-05
4.92433e-05
9.12708e-06
1.42609e-06
-6.69415e-05
-7.27301e-05
-1.43616e-05
-9.74489e-06
-1.56983e-05
2.6738e-05
-9.21222e-05
-5.88649e-05
-1.25876e-05
5.10605e-05
-8.97488e-05
7.86015e-05
1.30899e-05
1.51682e-05
-0.000114672
-4.1971e-05
1.06478e-05
8.84158e-05
-6.75279e-06
-6.93055e-06
1.08082e-05
-9.15196e-05
-1.49589e-05
1.07785e-05
5.18087e-05
-3.28287e-05
4.25935e-05
9.43092e-06
7.85571e-07
4.03605e-05
-3.83495e-06
2.6673e-05
-2.21871e-05
6.11646e-07
2.16404e-06
1.83091e-05
-2.01633e-05
-7.52346e-05
-8.20155e-05
-4.08834e-05
3.06886e-05
3.11451e-05
-1.76036e-05
-1.14893e-05
3.87497e-05
9.27423e-06
1.17539e-05
-4.4487e-05
-5.2748e-05
-4.26525e-05
9.60724e-05
-3.91065e-05
-6.17567e-05
-4.51251e-05
4.71994e-06
-4.1578e-05
-1.74809e-06
2.57661e-05
4.81141e-05
-3.50768e-05
2.89141e-05
3.42634e-05
2.19491e-05
-2.03149e-05
-2.84291e-05
2.95844e-05
6.23252e-05
1.81489e-05
-1.77096e-05
-4.229e-05
-3.51819e-06
6.32221e-05
3.54694e-06
7.63219e-06
-5.29387e-06
1.017e-05
2.74981e-05
2.91362e-05
-2.60755e-05
-5.97399e-05
8.6788e-05
3.29311e-05
-1.45725e-05
-1.42367e-05
5.72905e-05
3.8431e-06
9.8189e-05
0.000121367
-2.85935e-05
2.4998e-05
7.872e-06
-1.86709e-05
-1.70149e-05
-7.32373e-05
0.00011208
-1.25974e-05
-6.01782e-05
7.86246e-06
3.08842e-05
9.78343e-06
7.8408e-06
1.71363e-05
4.8778e-08
-2.67222e-05
-2.56812e-05
-4.13368e-05
-4.55835e-05
-1.7624e-05
-7.76572e-06
-4.82696e-05
7.13979e-05
1.64243e-05
3.01736e-05
-3.19601e-05
1.3984e-05
-1.39403e-05
-1.55896e-05
4.4764e-06
-1.65857e-05
8.27655e-05
5.56018e-05
5.67292e-06
3.54113e-05
2.86195e-06
-1.63058e-05
2.07491e-05
9.63255e-06
-1.45014e-05
-4.88879e-05
-4.07489e-05
-9.69204e-06
4.12576e-05
-2.15805e-05
-3.41525e-05
5.64964e-05
-1.37317e-05
-5.04197e-05
3.8474e-05
-2.33629e-05
-1.19617e-06
-5.94474e-05
5.9522e-06
6.40078e-05
-7.39718e-05
-2.23715e-05
-4.28909e-06
-7.43165e-05
-1.58098e-05
5.60059e-05
-2.41012e-05
5.20148e-05
4.58732e-05
-3.1643e-05
0.000122278
2.89966e-05
1.20705e-05
-2.74091e-05
-3.44686e-05
-3.20196e-05
5.98453e-05
4.27908e-05
-2.54272e-05
-1.6286e-05
4.25265e-05
4.55984e-05
-7.08053e-05
-4.53845e-05
-1.75914e-05
6.00131e-05
3.70808e-05
4.36972e-05
-7.64511e-06
2.17553e-05
1.48437e-05
1.47809e-05
3.49521e-05
1.44987e-05
-7.17351e-05
5.90791e-05
3.93528e-05
-1.62122e-05
4.74526e-05
-1.8456e-05
-3.84229e-05
8.46096e-05
5.78986e-05
5.29932e-05
-2.8294e-05
-1.40261e-05
-3.3814e-06
6.56871e-05
1.70167e-05
1.81664e-05
-1.45178e-05
-3.22153e-05
8.30169e-06
5.70647e-05
3.72088e-05
6.89618e-05
3.92866e-05
3.07861e-05
-1.59345e-05
4.175e-05
8.47294e-06
-3.21821e-05
-1.07551e-05
-1.45922e-05
5.39317e-05
1.21891e-05
2.11243e-05
-2.64747e-05
1.1299e-05
-2.39079e-05
-1.44509e-05
1.09975e-05
-7.73487e-06
4.69037e-06
1.6859e-05
6.67052e-05
1.57993e-05
-0.00010758
-8.2499e-05
6.5231e-06
-5.85074e-05
5.17322e-05
1.84864e-05
1.66775e-05
-7.07682e-05
5.68549e-06
-1.86224e-05
-4.33433e-05
5.8328e-05
-4.15364e-05
-7.7674e-05
-1.33208e-05
-3.74749e-05
-1.09954e-06
5.06305e-05
3.43448e-05
5.21402e-05
2.95317e-05
4.71442e-05
-2.02374e-05
0.000134812
5.51656e-05
-3.82703e-05
-1.12222e-05
0.000111733
1.12818e-06
-1.38339e-05
-2.07323e-05
-1.05337e-05
5.75115e-06
2.51086e-05
-6.47181e-05
1.22224e-06
0.00011825
2.02323e-05
-6.96783e-05
-8.34578e-05
9.06889e-05
4.29546e-05
-6.09935e-05
-2.33599e-06
4.52437e-06
-2.48619e-05
-7.49842e-05
-6.30098e-06
3.39793e-05
6.28864e-05
-2.65869e-06
-2.97545e-05
-6.6773e-05
-1.08313e-05
7.42334e-06
3.03178e-05
-1.26916e-05
1.26482e-05
-3.24746e-05
-1.54036e-05
4.65959e-05
-6.06058e-07
-7.33235e-05
-3.6117e-05
3.19342e-05
5.0713e-05
5.52048e-05
-3.86608e-05
-2.71013e-05
-1.73203e-06
4.00438e-05
-1.28828e-05
1.1524e-05
2.7539e-05
1.51003e-05
2.02365e-05
3.27819e-05
-0.000103584
-2.37202e-05
5.62993e-05
-3.56049e-05
-8.56414e-05
0.000101617
-2.90703e-05
2.15791e-05
-5.19506e-05
6.29376e-06
-5.9559e-05
3.80166e-06
-4.01154e-05
2.21787e-05
-9.73779e-06
6.3583e-05
-2.76127e-05
-2.5439e-05
9.06728e-05
-5.55891e-05
-3.51442e-05
1.47808e-05
-2.30939e-05
3.46852e-05
-4.10138e-05
-1.09316e-05
2.98406e-05
3.4565e-05
-4.78458e-05
-5.78745e-05
-3.72985e-05
3.58615e-05
-1.02362e-05
-1.76756e-05
3.83473e-05
4.55067e-06
-3.07254e-05
-6.31752e-05
6.1905e-06
-5.68884e-05
0.000120349
-0.000117729
-6.80871e-05
1.01875e-05
-1.02165e-05
2.82167e-05
-1.96022e-05
-6.25569e-06
3.5075e-05
9.93174e-06
-5.96484e-05
5.40578e-05
-2.97577e-05
-7.2585e-07
-9.39099e-06
-2.64792e-05
5.89006e-05
9.35841e-05
7.9501e-05
-1.68923e-05
-6.82934e-05
-7.77041e-05
4.75617e-05
-1.31736e-06
1.17447e-05
5.16307e-05
-6.3151e-05
2.21422e-05
3.45726e-05
-3.89625e-05
4.92727e-05
9.85339e-06
-2.73695e-05
-7.18009e-05
-2.20735e-06
9.41253e-06
5.68596e-05
-2.01395e-05
-8.62172e-06
7.09016e-06
9.57632e-07
-2.9198e-05
-3.67719e-05
9.87318e-07
-7.08329e-06
-7.77076e-05
4.07124e-05
2.28041e-05
-2.33531e-05
-2.82729e-05
6.35569e-06
-3.10609e-05
-2.37789e-05
5.87653e-05
3.77761e-05
-8.88549e-05
1.88741e-05
2.82151e-05
2.42067e-05
-1.97265e-05
3.13722e-05
2.67723e-05
-2.78914e-05
-1.14411e-05
4.39795e-05
-1.84717e-05
6.28899e-06
-9.41637e-06
3.6708e-05
-1.65387e-05
-2.21914e-05
-3.26344e-05
2.11541e-05
-9.0529e-05
-2.25267e-05
7.1784e-06
-1.67803e-05
-5.12949e-05
-4.15263e-05
3.02577e-05
1.87582e-05
1.34513e-05
6.79974e-05
0.000103677
-2.68697e-05
-5.62217e-05
-7.36851e-06
-8.72847e-06
-8.2209e-06
-0.000119192
3.07659e-05
9.9708e-05
7.93554e-05
2.3524e-05
2.89537e-06
3.23565e-05
6.61949e-06
-1.2741e-05
-1.12371e-05
3.50166e-06
6.08941e-05
-6.73509e-06
5.99329e-05
-9.1081e-06
-4.93438e-05
-1.25013e-05
-1.79209e-05
3.41781e-05
-3.37975e-05
7.39517e-06
5.94541e-05
0.000102923
1.58966e-05
2.07371e-06
6.6084e-05
-5.4953e-05
-6.42198e-05
4.83613e-06
5.86051e-05
-3.53622e-05
-0.000113618
-3.21863e-05
8.2521e-06
3.0373e-05
4.09433e-06
1.25879e-05
-2.57905e-05
4.03007e-06
-1.99424e-05
-0.000115459
-8.30332e-06
2.34321e-05
1.67682e-05
-9.89903e-06
-1.77938e-05
3.41067e-05
5.38379e-05
-8.89529e-07
-3.26858e-05
-1.44825e-05
1.08397e-05
2.86296e-05
1.41958e-05
-1.13217e-05
4.36339e-05
-9.70054e-06
4.36601e-05
-6.25988e-06
-6.49588e-05
8.33396e-05
7.37316e-06
-2.3359e-05
-5.29961e-05
8.2195e-06
-7.67076e-05
-5.47334e-05
1.69987e-05
-2.35284e-05
6.93039e-05
-5.89244e-05
-1.58964e-05
-3.79689e-06
-4.36554e-05
1.74961e-06
6.90832e-06
-1.56335e-05
-1.26811e-05
-6.31367e-06
-2.87468e-05
6.35845e-05
-1.27363e-05
2.98871e-05
-1.94584e-05
0.000106661
-6.87317e-05
2.64239e-06
7.9783e-05
-7.28983e-05
-2.11622e-05
-1.82854e-06
-5.65476e-06
-3.07189e-05
-1.66241e-07
6.13106e-05
-4.53598e-05
-3.93705e-06
2.74235e-05
5.10011e-05
6.30144e-06
2.1523e-05
-5.93151e-05
-4.52383e-05
-4.56916e-05
-4.39745e-05
-2.38918e-05
-5.03433e-05
-2.24275e-05
-6.28909e-05
1.11941e-05
0.000117078
1.08838e-05
1.60374e-06
7.11577e-06
-1.24834e-05
-9.79607e-05
1.17279e-05
-2.43352e-05
-6.52869e-05
-4.57338e-05
9.77492e-05
-2.84507e-05
2.46854e-05
2.89707e-05
-3.39518e-05
9.19261e-05
-5.06376e-05
-3.13991e-05
4.17815e-07
2.26257e-05
5.23936e-05
-4.63504e-05
3.01935e-06
-7.25873e-05
3.6242e-05
4.53801e-05
5.10273e-05
4.96125e-05
1.14621e-05
6.31437e-06
1.38576e-05
1.41445e-06
1.35626e-05
-5.94298e-05
-5.26091e-05
-3.14455e-05
3.68985e-05
-1.13063e-06
4.39433e-06
1.65979e-05
1.01099e-05
-4.56732e-05
-5.6707e-05
-2.16056e-05
3.75346e-06
3.02105e-05
2.47173e-05
-3.70553e-05
-4.6816e-05
-8.03274e-05
-3.89203e-05
8.46451e-05
4.35197e-05
1.98977e-05
-8.17527e-06
-6.95721e-06
-5.38768e-05
3.58438e-05
-6.18509e-05
7.90427e-05
-1.59476e-05
-3.99168e-05
-6.26175e-05
3.5122e-05
5.15336e-05
1.9701e-06
-3.47104e-06
-9.94978e-06
5.45724e-05
-4.35942e-05
-3.20035e-05
3.58504e-05
-2.33703e-05
-7.19412e-06
3.1627e-05
-2.36784e-05
4.79082e-05
6.11595e-05
-1.50187e-05
5.83354e-05
-1.60111e-05
-5.55504e-05
-4.11184e-05
3.92948e-05
8.73668e-05
-9.01846e-06
2.39068e-05
5.31231e-05
-2.11806e-06
3.75924e-05
-6.11139e-05
-5.37822e-05
4.75652e-05
-2.9743e-05
-7.41599e-05
-1.30141e-05
3.82867e-06
-4.95904e-05
-1.00629e-05
1.48064e-05
3.36813e-06
-4.77562e-05
-3.26609e-05
4.77978e-06
4.40961e-05
4.0431e-05
-4.65778e-05
-4.65789e-05
9.95374e-06
6.58098e-05
1.77755e-05
-1.76013e-05
-0.000102062
4.74707e-05
-2.01665e-05
-7.77538e-06
-8.79914e-06
4.50332e-05
-5.59178e-06
-5.70057e-05
-1.9311e-05
-3.39668e-05
4.75901e-05
2.1651e-05
-2.2209e-05
-2.47788e-05
-2.54149e-05
-5.89096e-06
-1.15657e-05
-4.13185e-05
-4.02358e-05
1.20606e-06
-4.48263e-05
2.04253e-05
3.3807e-06
-2.82916e-05
3.01641e-05
9.34815e-06
-6.71301e-05
-4.05738e-05
7.09335e-05
-3.39557e-05
-2.67512e-05
2.17734e-05
1.56357e-05
1.44396e-05
-8.90205e-06
-1.19938e-05
1.44325e-05
8.70281e-05
-9.69972e-07
1.24224e-05
-5.59277e-05
-1.92774e-05
3.90812e-05
3.07034e-06
-4.05496e-05
7.56595e-06
6.72856e-05
3.9499e-05
-7.47535e-05
-3.48645e-05
2.46888e-05
-5.16149e-05
3.76697e-06
-4.0855e-05
-1.8319e-05
8.32835e-05
-3.53504e-05
-3.56366e-05
-9.10251e-06
-2.37033e-05
-7.6158e-05
-4.31736e-05
-3.44524e-05
3.03314e-05
-5.93202e-05
-4.43419e-05
-1.38482e-05
2.80141e-05
4.43443e-05
7.11181e-06
-4.18397e-07
-3.3796e-05
5.63178e-05
4.62116e-05
-7.51622e-05
0.000106831
-4.85462e-05
-1.38161e-05
-8.4145e-07