# vtk DataFile Version 1.0
Net Charge Density
ASCII
DATASET STRUCTURED_POINTS
DIMENSIONS 256 128 1
ORIGIN 0 0 0
SPACING 0.15625 0.15625 1
POINT_DATA 32768
SCALARS rhonet float
LOOKUP_TABLE default
-3.89607e-06
-9.51277e-05
0.000144792
9.63218e-05
3.56843e-05
0.00012045
-0.000118445
9.18582e-05
0.000154216
2.28998e-05
-3.75607e-05
0.000108726
0.00010382
7.94458e-05
0.000109346
4.99607e-05
8.77433e-05
0.000140236
4.05877e-05
-6.79106e-05
-6.40727e-06
0.000141859
0.000144767
4.77822e-05
3.72682e-05
2.07431e-05
7.7422e-05
9.0589e-05
-1.35216e-05
-7.27429e-05
5.23025e-05
3.97238e-05
4.36691e-05
6.9008e-05
1.24418e-05
0.000171713
1.68071e-05
7.28726e-05
7.73577e-05
-5.53089e-06
2.29324e-05
6.83218e-06
0.000136404
9.39812e-05
2.09385e-05
1.86828e-05
-3.16132e-05
6.95548e-05
0.000116213
7.88721e-05
-1.20072e-05
2.49783e-05
8.34425e-05
0.000148995
3.55958e-05
1.75037e-05
0.000151011
-5.17472e-05
5.67792e-06
7.16951e-05
5.02797e-05
6.0602e-05
7.16757e-06
8.01804e-05
8.22491e-05
-8.03835e-05
4.41822e-05
0.000136175
4.09954e-05
4.8283e-05
7.92338e-05
3.67111e-05
-2.69158e-05
4.9667e-05
-1.14786e-07
5.11553e-05
4.20862e-05
-3.83082e-05
9.21623e-05
0.000106615
8.71841e-05
2.54083e-05
7.49616e-05
0.000101106
4.54683e-05
-4.47989e-06
-1.66905e-05
6.70487e-05
0.000119669
-2.34882e-05
9.0003e-05
-1.47952e-05
-3.90534e-05
-6.21495e-06
-8.9918e-05
5.22719e-05
0.000157961
2.40973e-05
9.16882e-05
-2.49444e-05
0.000157723
9.09187e-05
-3.16964e-06
9.47255e-05
3.90382e-05
0.00013097
-2.58442e-07
-6.85494e-05
2.66242e-06
7.39997e-05
0.00013342
5.79273e-05
2.02986e-05
3.31155e-05
8.04215e-05
4.36595e-05
1.22654e-05
7.49693e-05
5.09603e-05
4.32273e-05
-3.98805e-05
-3.45634e-05
4.0445e-05
2.44896e-05
0.00011572
6.60872e-05
1.8255e-05
8.13096e-05
1.99639e-05
-1.881e-05
0.000119797
9.26158e-05
-2.24437e-06
3.77488e-05
2.03243e-05
6.79656e-06
4.4609e-05
-3.19162e-05
4.68967e-05
-1.15025e-05
-4.98409e-05
2.32954e-05
2.0962e-05
0.000160761
9.88225e-05
2.06369e-06
0.000137836
1.15243e-05
-3.1124e-05
0.000132418
1.78271e-05
2.91319e-05
0.000108428
-8.34581e-06
3.45043e-05
4.32312e-05
5.74626e-06
3.42714e-05
-5.27652e-06
1.75424e-05
7.67777e-05
2.50086e-05
0.00011271
-2.20693e-05
3.25857e-05
2.55228e-05
5.84624e-05
-6.12724e-05
0.000105448
0.000137296
2.50291e-05
4.32234e-05
7.45824e-05
0.000111579
-2.02684e-05
-8.13371e-06
8.72932e-05
-8.23224e-05
1.15582e-05
3.31808e-05
8.87692e-05
-7.06e-05
-3.18112e-05
5.65359e-06
1.04991e-05
7.98536e-05
4.14203e-05
7.20925e-05
0.000102554
7.46859e-05
2.48842e-05
0.000198125
8.16125e-05
-6.56992e-05
6.24198e-05
0.000201229
4.75224e-05
8.32755e-05
7.86673e-05
-1.63091e-05
5.95994e-05
0.000149169
4.39013e-05
3.83354e-05
-1.00759e-05
6.97707e-05
-5.9888e-05
5.34237e-05
6.86804e-05
8.57909e-05
6.81021e-05
0.000137439
0.000106096
-2.40523e-05
0.000111081
-0.000131281
0.000102691
9.90946e-05
-5.2873e-05
-3.79209e-05
8.69741e-05
0.000114878
0.000176992
3.40518e-05
7.95297e-05
5.67447e-05
-3.69136e-05
-1.514e-05
8.69029e-05
6.86068e-05
6.22869e-06
4.16544e-05
2.36372e-05
2.60696e-05
0.000121308
-3.55704e-05
-2.05773e-05
2.75003e-05
5.94512e-05
8.97981e-06
1.84994e-05
8.6694e-05
-5.82666e-05
-3.0722e-07
2.65904e-05
-1.441e-05
-2.21957e-05
-3.95465e-05
0.000128655
-4.29631e-06
2.10484e-05
-3.85132e-05
0.000102293
2.14376e-05
2.40527e-05
4.18613e-05
-0.0001049
2.47044e-05
-6.30285e-05
-2.51194e-05
-2.38867e-05
5.12265e-05
-2.60443e-05
-7.57638e-05
4.98929e-05
-6.6046e-05
-4.28999e-05
2.33415e-05
-5.99083e-05
-8.02726e-05
3.00247e-06
-4.24261e-05
4.66267e-06
1.08914e-05
-2.1575e-05
-4.06033e-06
-5.82073e-05
-6.74935e-05
-0.000106138
-1.79203e-05
-2.00458e-05
-5.72718e-05
-2.52763e-05
7.72986e-06
-3.07407e-05
-8.53874e-05
-3.53896e-05
-8.36141e-06
2.74419e-05
-7.95682e-05
-6.67484e-05
2.31335e-05
-0.000103178
-3.37882e-05
1.98338e-05
-8.20337e-05
-5.15869e-05
-4.38408e-05
8.67259e-06
3.55997e-05
-2.47126e-05
4.87478e-06
-0.000112384
-3.1517e-05
3.88796e-05
-3.3941e-05
-6.56126e-05
-4.11932e-05
-3.17377e-05
2.98236e-05
-2.85321e-05
-3.5457e-05
-2.34862e-05
-0.00011611
1.48106e-05
-3.3793e-05
4.56306e-05
-5.12691e-05
-5.72852e-05
-3.7346e-05
-3.01477e-05
-6.05665e-05
-1.00287e-05
-7.96343e-05
-0.000109192
1.21043e-05
-4.39817e-05
9.01776e-06
-1.84355e-05
1.72415e-05
-5.13538e-05
-1.04336e-05
4.76098e-05
-2.54943e-05
5.74088e-05
2.15601e-07
-3.24127e-05
-5.04443e-05
-8.22562e-05
2.84826e-05
2.44661e-05
-6.16946e-05
-0.000158637
-4.1698e-05
-6.60075e-08
-1.69137e-05
8.77376e-06
5.33129e-05
3.15579e-06
-1.07941e-05
2.4714e-05
-5.9657e-06
3.43226e-05
-2.73117e-05
-6.8472e-06
-1.89513e-06
-4.36432e-05
-0.000106617
-3.96518e-05
-2.96773e-05
-3.556e-05
1.64219e-05
-5.91244e-05
-4.27186e-05
-1.06706e-06
-6.00028e-06
5.43522e-05
-3.5424e-05
-7.13796e-05
-7.13193e-05
4.01703e-05
1.15477e-05
-5.23517e-05
-1.11546e-05
9.64501e-06
3.18992e-05
-8.57748e-05
1.39617e-05
-6.13796e-05
-7.74162e-06
-3.48632e-05
-1.67099e-05
-4.55661e-05
-6.96031e-05
1.70252e-05
-4.88098e-05
-2.07969e-05
1.59814e-05
-1.05533e-05
-2.35445e-05
-1.24411e-05
-3.31042e-05
-4.60123e-05
-1.3358e-05
-4.22455e-05
-8.32276e-06
-5.94474e-05
-7.82579e-05
8.69692e-06
-2.01957e-06
-8.38251e-05
1.05487e-05
-3.22355e-05
-4.36762e-05
-0.000117681
-8.72568e-06
-3.99577e-05
-3.83074e-05
-7.16746e-05
9.37085e-06
3.00057e-05
-1.70404e-05
-2.39994e-05
-1.85589e-06
-5.11223e-05
-2.02563e-05
-8.13485e-05
-6.40942e-05
3.62427e-05
-8.02714e-05
-7.56385e-06
2.37462e-05
2.21166e-05
-5.27811e-05
-2.4247e-06
3.60705e-05
-9.4656e-05
1.02371e-05
-2.21479e-05
3.9703e-05
-4.13508e-05
-2.55482e-05
-5.70063e-06
3.04058e-05
-6.90701e-05
-4.7768e-05
3.67505e-05
-4.79678e-06
2.05927e-06
-4.86566e-05
-0.000107547
-6.60244e-05
-2.66007e-05
-2.24797e-05
-9.32999e-06
-1.88574e-05
-0.00010145
6.32275e-06
3.69595e-05
4.61005e-06
-1.0849e-05
-2.36543e-05
-8.50846e-05
-3.9091e-05
4.81097e-05
-6.9777e-06
-7.51886e-05
-6.4628e-05
-4.37902e-05
3.07562e-05
-5.53507e-05
1.83098e-06
-5.12167e-05
9.71669e-05
1.17979e-05
-4.14072e-05
-5.22411e-05
-4.83997e-05
-4.73993e-05
3.21253e-05
-3.50827e-05
-7.29872e-05
1.69803e-06
-2.53872e-05
-1.98882e-05
4.50609e-06
-1.73199e-05
7.05679e-05
5.70893e-05
-6.70664e-05
-3.48981e-05
-2.73383e-05
-7.02047e-05
-2.06066e-05
2.42676e-05
8.58859e-05
-8.7034e-05
6.93474e-06
-4.3453e-05
-3.62701e-05
6.90325e-05
3.75875e-05
-6.27583e-05
-4.99166e-06
2.55415e-05
-5.11217e-05
2.2625e-05
-1.34832e-05
-4.80212e-05
-1.98237e-05
3.05497e-06
3.73247e-05
3.42682e-05
-1.23482e-05
-2.31673e-05
-0.000132199
-1.66707e-07
-7.60634e-06
5.12579e-05
-7.35302e-06
-7.36321e-05
5.01692e-06
-3.30423e-05
-1.99093e-06
5.00252e-05
-7.79773e-06
-2.33892e-05
-8.48062e-06
1.05449e-06
-1.92294e-05
7.13235e-05
-5.15234e-05
7.82253e-06
3.11632e-05
6.53437e-05
-4.67908e-05
-2.90642e-05
-1.14905e-05
-2.49565e-05
-9.34283e-05
-2.04816e-05
3.51586e-05
4.88631e-05
3.6408e-05
-1.64523e-05
3.77694e-05
6.1458e-05
-4.75245e-05
4.4845e-05
4.40085e-05
9.82266e-06
-5.10867e-05
1.23072e-05
2.34441e-05
7.04305e-05
4.96682e-05
-3.57148e-05
2.25287e-05
5.27385e-06
-2.51166e-05
4.80089e-05
3.40398e-05
2.11624e-05
-2.89197e-05
-7.34258e-05
2.16754e-05
3.48729e-05
1.4212e-06
-4.63352e-05
1.81736e-06
-1.65714e-05
5.22439e-05
1.9271e-05
-4.25096e-05
-9.05949e-05
6.8841e-06
2.9428e-05
9.43255e-06
3.90759e-05
-4.01766e-05
2.79774e-05
-3.30706e-05
9.02754e-05
1.87061e-05
2.19352e-05
-2.38941e-05
3.89215e-05
7.95068e-05
-1.43028e-06
-1.07866e-05
-4.31229e-05
-5.63418e-05
3.65559e-05
5.69131e-06
-2.97659e-05
3.18504e-05
-3.75099e-05
-1.97685e-05
6.36962e-05
5.06415e-05
-4.80589e-05
-4.18769e-05
-9.31264e-06
-2.63561e-05
-1.33658e-05
5.09444e-05
7.41067e-05
-1.38808e-05
-5.52125e-05
-6.0239e-05
2.25467e-05
4.01651e-05
-3.5647e-05
4.60854e-05
6.04024e-05
1.00422e-05
-2.72855e-05
-6.8402e-05
1.03847e-05
-3.90668e-05
-6.67316e-05
1.89333e-05
-3.86649e-05
-7.26085e-05
1.55343e-05
3.44658e-05
-9.18214e-06
-2.52386e-05
3.49996e-05
6.71941e-05
-7.81449e-06
-2.34853e-05
1.90873e-05
-3.45566e-05
-3.24717e-06
3.17618e-05
-4.33619e-05
-4.44565e-05
-1.29167e-05
6.19071e-05
-1.54721e-05
-1.92425e-05
-9.33651e-07
1.07805e-05
-2.67866e-05
6.43284e-05
6.28293e-07
3.16112e-05
-3.45437e-05
-2.02104e-05
3.29812e-05
-8.92964e-06
-5.33776e-05
-6.58382e-05
-1.97744e-05
2.3836e-06
3.65477e-05
8.3677e-06
-1.87755e-06
1.48285e-05
-2.75736e-05
4.24775e-05
2.79525e-05
9.69105e-05
6.65829e-05
1.94265e-05
1.45666e-05
-1.36637e-05
5.90172e-05
5.7769e-05
-3.53303e-05
8.65561e-05
-1.8848e-05
-2.10222e-05
-5.39368e-05
1.12338e-05
-1.22986e-05
7.03163e-05
-1.07872e-05
6.14871e-06
5.77936e-05
3.47517e-05
-3.56394e-05
-5.85581e-06
4.38272e-05
2.99951e-05
1.48881e-05
3.0942e-06
-6.29965e-05
1.44136e-05
-9.34473e-05
4.10876e-05
-3.34162e-05
-7.29717e-05
6.78666e-06
-4.31375e-05
3.26068e-05
-5.40692e-05
-3.51893e-05
-7.38073e-06
-3.46781e-05
7.78178e-06
5.28591e-05
1.66986e-05
-1.6155e-06
7.61894e-05
-2.89583e-06
5.27898e-05
3.30994e-05
2.69049e-05
3.20119e-05
-4.14014e-05
-7.91213e-05
6.70366e-06
-3.7106e-05
3.38769e-07
3.12878e-05
2.5589e-05
4.62427e-05
-7.34453e-06
3.85572e-05
-1.82483e-05
8.60394e-05
-3.51761e-05
-2.42111e-05
-2.44783e-05
3.96878e-05
3.96362e-05
-5.59585e-06
-1.59813e-05
5.26486e-05
-3.12829e-05
-9.51311e-06
1.32092e-05
3.03081e-05
4.01438e-05
-6.21304e-05
6.55791e-06
-4.02801e-05
7.68167e-05
-2.30568e-05
2.42714e-06
-2.36239e-05
-7.65675e-06
1.05577e-06
-7.5846e-05
1.8905e-05
4.24923e-05
2.73332e-06
-4.68802e-05
-0.000111356
2.3297e-05
1.92823e-05
1.66963e-06
4.11416e-05
-1.26261e-05
3.11434e-06
-2.15394e-05
-7.41899e-05
3.578e-05
1.81668e-05
-4.43211e-05
1.3806e-05
2.49422e-05
-1.40067e-05
-5.45263e-05
-1.59672e-05
4.84828e-05
-4.49945e-06
-0.000139602
5.7974e-05
3.08063e-05
0.000100899
-3.72753e-05
3.82721e-05
1.96726e-05
-2.19455e-05
-3.16999e-05
-3.15026e-05
5.7979e-05
8.84749e-05
-9.06736e-06
-5.99888e-05
9.21905e-06
8.46433e-06
-1.87429e-08
-2.07851e-05
-3.90374e-05
0.000130274
-3.43216e-05
-4.70515e-05
5.37115e-05
-2.79665e-06
2.82272e-06
-3.79188e-05
-6.05412e-05
4.75424e-05
4.84354e-05
-1.75374e-05
3.74631e-05
-5.19105e-05
4.1817e-05
3.39497e-05
-6.99728e-05
2.73653e-05
3.88063e-05
1.67808e-05
-5.26785e-05
6.28689e-05
-2.19626e-05
-4.31014e-05
-7.4032e-06
-2.66791e-05
4.25463e-05
3.64962e-06
2.7573e-05
-4.73877e-05
-6.4373e-06
3.03093e-05
-2.26296e-05
-8.19344e-05
-4.95826e-05
1.3623e-05
3.36373e-05
4.53525e-05
-3.78171e-05
6.72052e-05
-2.02056e-05
-6.23043e-05
4.74697e-05
4.62761e-05
1.24054e-05
3.8288e-05
2.15027e-05
5.87144e-05
-6.49999e-05
-4.25662e-05
-1.34121e-05
4.39063e-05
4.78701e-05
-2.23204e-05
-6.05178e-05
1.98302e-06
-2.43704e-06
-3.0012e-05
1.48925e-05
2.92044e-05
7.28877e-05
7.06636e-05
-3.58251e-05
-0.000140627
2.58463e-05
1.2035e-06
-2.88258e-05
-4.69697e-05
5.72426e-05
3.12587e-05
1.75561e-05
-0.000107817
-1.58476e-05
1.13323e-05
3.99519e-05
3.28136e-05
-4.30103e-05
3.2036e-05
3.74886e-05
-3.91938e-05
2.83311e-05
3.71942e-05
-1.3714e-05
3.56361e-05
-5.44158e-05
8.30449e-05
3.03239e-05
-1.9427e-05
-2.67294e-05
6.8428e-05
4.1218e-05
-2.91597e-05
3.35341e-05
3.9214e-05
3.68367e-05
-3.48367e-05
-2.81516e-05
1.41674e-05
3.52946e-05
-7.15664e-05
-2.1616e-05
4.60048e-05
3.6499e-05
2.31861e-05
-3.12361e-05
-7.13486e-05
2.25485e-05
-3.52722e-05
7.69857e-05
-4.16434e-05
-1.37858e-05
7.45143e-05
-5.40669e-05
4.00399e-06
-1.77847e-05
-5.58048e-05
2.01227e-05
5.96023e-06
5.05819e-05
6.3116e-05
-6.58255e-05
8.14194e-05
-4.32244e-05
-2.44334e-05
2.67201e-05
4.39445e-06
9.56759e-06
7.65536e-06
4.39037e-06
-4.22163e-05
2.17028e-05
1.01276e-05
-1.56356e-05
-7.88146e-05
-2.79715e-05
-7.33114e-06
2.62831e-05
6.22892e-06
2.38395e-05
-8.04127e-06
5.2616e-05
3.0096e-05
-3.07955e-05
-8.6859e-05
1.14741e-05
3.87328e-05
1.11607e-05
-2.85616e-05
-9.1251e-06
-2.48186e-06
2.21184e-05
-3.22971e-06
2.53445e-05
2.25467e-05
3.20959e-05
-2.08742e-05
-3.06265e-06
6.05476e-06
-3.41388e-06
3.49665e-05
-2.44871e-05
5.3474e-05
1.96628e-05
1.27889e-05
-1.15688e-05
2.92524e-05
2.87092e-06
3.39588e-05
-1.87169e-05
-2.8864e-06
-6.9041e-05
2.46684e-05
-5.03869e-06
-1.26837e-05
2.05981e-05
-2.63397e-05
-2.66149e-06
-3.0247e-05
-7.38937e-05
-1.16547e-05
0.000124286
-9.67178e-05
2.30565e-05
4.08877e-05
1.1208e-05
1.89696e-05
2.29746e-05
-6.50402e-05
-1.85567e-05
-3.58939e-05
9.88715e-06
-2.25087e-05
-0.000114619
5.06438e-05
-0.000120174
-5.21548e-05
0.000129995
-2.85544e-05
-3.29314e-05
1.39811e-05
-3.08803e-06
-4.5849e-06
-6.87174e-05
5.01401e-07
2.5406e-05
-3.06808e-05
-4.83696e-05
-2.09836e-05
3.77463e-05
3.9908e-05
1.09908e-05
-3.37756e-05
2.43064e-05
4.91926e-05
4.5861e-05
-7.13926e-05
-6.57423e-05
-4.48684e-05
5.14659e-05
2.45101e-06
-1.54693e-06
-6.96711e-05
3.41912e-07
-1.04231e-05
6.89435e-06
-2.29042e-05
-2.35531e-06
-3.06226e-05
3.27416e-05
-3.22668e-06
-1.03367e-05
-2.52563e-05
2.8462e-05
9.52231e-05
-3.02617e-05
3.21711e-05
4.43816e-05
-4.5409e-05
-0.000101102
-3.30771e-05
0.00011101
6.25442e-05
-5.28278e-05
-0.000107186
-1.18127e-05
6.85675e-05
3.46117e-05
-5.40469e-05
-5.21382e-05
4.75177e-05
-4.06366e-05
-0.000119435
6.12034e-05
-1.81564e-05
-3.11732e-05
0.000105493
-4.54735e-05
-9.2944e-05
-5.38457e-05
9.50578e-06
-5.54989e-05
1.67227e-05
4.28164e-06
-7.23697e-05
6.52415e-06
4.59244e-05
6.77758e-06
-2.06637e-06
5.32221e-05
2.83379e-05
-3.75982e-05
-4.85511e-05
0.000104193
-1.62808e-05
-5.7281e-06
-2.96998e-05
-2.67208e-06
-4.58123e-05
8.22789e-06
-1.31112e-05
-4.38879e-05
-3.36708e-05
-5.49547e-05
4.806e-05
-3.43904e-05
5.50931e-05
-3.26773e-05
-2.49939e-05
-9.60939e-06
3.26966e-05
-4.34384e-05
8.2174e-05
3.99037e-06
1.01076e-05
-2.64167e-05
-1.68534e-06
5.18316e-05
-5.05237e-05
7.65339e-05
-2.69969e-05
-2.84482e-05
5.25324e-06
1.91289e-05
5.75266e-05
-1.55072e-05
1.41476e-05
1.54797e-05
9.67542e-05
-2.60591e-05
2.79723e-06
-6.86485e-05
-4.36453e-06
5.35534e-06
-6.23404e-07
-1.1227e-05
2.76116e-05
-7.0645e-05
2.38864e-05
3.64643e-05
-5.86105e-06
-1.4732e-05
5.85362e-05
-1.46392e-06
5.05242e-07
-8.36374e-06
-6.68819e-05
-7.45838e-06
-5.66777e-05
5.49143e-05
-1.5568e-05
-6.51173e-05
1.93969e-05
-2.5009e-05
1.49552e-05
4.4449e-05
-8.87783e-06
-5.64917e-05
-7.07046e-05
-8.34139e-06
-2.96296e-05
-2.15252e-06
-1.83216e-05
-1.89315e-06
-0.000102778
8.74826e-06
3.24822e-05
3.07967e-05
-0.000103662
-3.61558e-05
2.02425e-05
8.39111e-05
4.75242e-06
-1.31457e-05
3.19696e-05
7.1479e-07
-3.71367e-05
-7.51376e-05
-6.92115e-05
-2.21259e-06
-7.09699e-05
1.36695e-06
-4.37519e-05
5.21006e-05
-3.20331e-05
-2.11222e-05
9.38156e-06
-1.06066e-06
4.85126e-06
-2.59295e-05
5.72982e-05
-2.03843e-05
4.02202e-05
1.71226e-05
-4.3611e-05
4.79084e-06
-4.09903e-05
-3.49246e-07
2.30945e-05
-3.31621e-05
1.34483e-05
1.23588e-05
-2.61042e-05
-4.63808e-05
1.17682e-05
-4.40207e-05
0.000100773
4.16168e-05
5.95755e-05
5.7267e-06
3.63565e-06
3.72176e-05
-2.83862e-05
-2.65323e-05
-3.87033e-05
-3.32436e-05
-2.94554e-06
-4.83519e-06
-7.42384e-05
-9.21185e-05
-4.12925e-05
9.3604e-05
1.79684e-05
2.4614e-05
5.07899e-05
-3.90918e-05
-4.86933e-05
-6.07776e-05
2.91871e-05
-7.01523e-05
2.39771e-05
5.71002e-05
1.43808e-05
-8.54444e-05
6.48922e-05
5.64102e-06
1.1501e-05
-0.000120717
5.33739e-05
7.36075e-05
5.39119e-06
1.38737e-05
1.18415e-05
-9.65106e-06
3.66955e-05
-3.03434e-05
4.71823e-05
6.17247e-05
-4.67978e-06
-4.04326e-05
-2.984e-05
4.83415e-06
-1.19151e-06
4.36946e-05
-1.84949e-06
-1.1378e-05
-1.7061e-05
7.82479e-05
-4.58374e-06
1.7914e-05
-3.62857e-05
-7.78632e-05
7.3835e-05
-9.19311e-05
-5.20819e-06
2.09289e-05
2.30642e-06
7.05891e-05
3.83814e-05
7.42101e-06
5.50142e-05
-1.01448e-05
4.60937e-05
-1.68378e-05
-5.88746e-05
-4.91901e-05
5.14218e-05
5.45883e-05
-1.98532e-05
5.8101e-05
3.0201e-05
1.38804e-05
2.24963e-05
6.25568e-05
6.90226e-06
-8.80086e-05
-1.34252e-05
-5.00795e-06
4.87003e-05
5.99249e-05
6.30913e-05
1.42644e-06
2.14429e-05
-2.66382e-05
-9.90392e-06
-6.22045e-05
-1.60282e-05
3.25949e-05
-3.8536e-05
-1.90417e-05
5.31536e-05
-2.28165e-05
1.54101e-05
-4.23553e-05
-5.64614e-07
-5.1148e-05
-1.07911e-05
-0.000114607
2.06345e-05
1.91703e-05
7.2854e-05
2.73277e-05
-4.94906e-05
5.05777e-05
5.2787e-05
6.41996e-05
-7.99063e-06
4.43968e-05
-4.86517e-05
-2.58866e-05
-3.12892e-05
9.76641e-05
-4.46027e-05
-4.87097e-05
2.70447e-05
-5.04584e-05
1.36554e-05
-9.01839e-05
-0.000131355
6.04801e-05
5.67494e-05
-1.70091e-05
2.47727e-05
-9.10833e-06
5.16702e-05
-8.06582e-05
3.82913e-05
3.78346e-05
1.59072e-05
-7.97631e-06
-6.65546e-06
3.57422e-05
3.13777e-05
-9.32616e-05
-4.72958e-05
-9.38079e-05
-4.97688e-05
6.84746e-05
-3.54389e-05
9.14535e-06
-3.66223e-05
3.8721e-05
1.69341e-05
4.47606e-05
-5.40498e-05
2.94936e-05
6.61315e-05
1.2241e-05
-6.64289e-05
1.134e-06
1.48164e-05
-1.36935e-05
6.08949e-05
-9.09087e-07
7.89308e-05
9.09693e-06
5.2616e-05
-9.66366e-05
3.41135e-05
6.60494e-06
-1.27824e-05
-4.43457e-05
-2.06706e-05
3.15078e-06
-9.30857e-07
-6.3061e-05
-0.000100799
-4.15873e-05
-9.15084e-05
-4.81856e-05
5.62919e-05
-1.52454e-05
-5.22907e-05
-2.412e-05
-1.08292e-05
-4.57693e-05
-4.23093e-05
1.19053e-05
2.83613e-05
-1.41364e-05
-5.28244e-05
-6.13477e-05
1.77317e-05
1.07329e-05
-2.08279e-05
5.96305e-05
1.79093e-06
2.51202e-05
-2.36356e-05
5.8867e-05
3.18957e-05
4.76108e-05
-7.31891e-05
7.22472e-05
-0.000100921
-6.24068e-06
6.49313e-05
8.48924e-06
3.23069e-05
-3.30666e-06
-4.32204e-05
2.3779e-06
1.99967e-05
-1.2729e-05
9.59344e-06
3.61402e-05
2.75428e-05
6.92138e-05
-2.724e-06
-6.3224e-05
-6.14615e-06
-7.61077e-06
-1.02106e-05
4.45031e-05
5.20085e-06
2.67311e-05
-6.63009e-06
-4.79864e-06
-2.94802e-05
1.43552e-05
5.6898e-06
6.79197e-05
9.01194e-06
3.43912e-05
1.84247e-05
1.29037e-05
-4.46523e-05
3.45932e-05
3.36547e-05
1.93866e-06
-1.88096e-05
4.4687e-05
-5.2389e-05
6.75368e-05
7.74651e-05
6.37188e-06
8.1385e-05
-3.18107e-05
2.20666e-05
-1.73561e-05
-2.87805e-05
-6.86578e-05
1.19237e-05
2.47912e-05
1.23699e-05
-3.48678e-05
2.16782e-05
-2.20753e-05
-3.52482e-06
1.23344e-05
1.70933e-06
2.97127e-05
-6.88564e-05
-1.33738e-05
9.18955e-05
-3.43511e-05
1.47281e-05
-1.2363e-05
4.94564e-05
2.42068e-05
-4.44688e-05
5.05934e-05
0.000106778
9.66929e-05
6.52507e-05
8.89762e-07
-7.20681e-06
-1.14567e-05
6.669e-05
-5.44835e-06
4.01794e-05
-2.33978e-05
4.17556e-05
-3.41274e-05
-2.13981e-05
6.28119e-06
-2.62641e-05
3.58212e-05
-8.9314e-05
4.69466e-05
-3.57558e-05
3.30252e-05
2.34637e-05
-9.97123e-05
2.21338e-05
3.57014e-05
-1.87462e-05
2.13257e-05
-6.78237e-05
2.7162e-05
-5.16975e-05
5.68138e-05
4.88439e-05
-1.74805e-05
3.80413e-05
4.54168e-05
1.17872e-05
-8.38004e-06
2.07493e-05
-2.05642e-05
5.28253e-05
-7.57063e-05
-4.26266e-05
-7.67282e-06
2.04981e-05
-1.54352e-05
-3.12328e-05
1.17403e-05
6.21649e-05
4.88076e-05
4.33577e-06
-0.000127571
-5.02246e-05
-6.86675e-05
-6.60997e-05
3.09139e-05
7.61505e-05
-7.01353e-05
-7.03009e-06
9.28482e-06
4.82406e-05
3.83961e-06
8.47329e-06
-6.75758e-05
-1.85829e-05
1.21737e-05
-8.66759e-06
-3.19525e-05
-1.42828e-05
3.18396e-06
7.33091e-06
1.82412e-05
2.56518e-05
-6.78839e-05
-4.71435e-06
3.49284e-05
-5.05331e-05
1.0794e-05
-1.50148e-05
-1.6305e-05
-2.95395e-05
9.53886e-05
2.63907e-05
-1.76693e-05
-2.15019e-05
-1.27992e-05
8.03301e-06
-1.35809e-05
2.63905e-05
-7.18539e-06
-1.90845e-05
2.17278e-05
5.39327e-05
-9.03431e-05
5.7904e-05
-1.44778e-05
-1.46052e-05
-3.83222e-05
-4.54383e-05
2.61615e-05
5.74818e-05
2.07162e-05
1.80582e-05
2.61943e-05
-7.22206e-06
-2.65971e-05
2.3871e-05
-3.81793e-05
-3.29992e-05
2.86616e-05
4.19561e-06
5.34139e-05
-1.29022e-05
-4.54579e-06
9.10501e-05
1.63324e-05
1.69137e-05
-4.63271e-05
3.55745e-05
-3.91718e-05
2.29453e-05
1.72227e-05
3.08582e-06
6.80583e-05
6.72807e-05
-1.70228e-05
-7.54674e-06
4.5586e-05
-1.23871e-05
-6.61216e-06
0.000122597
3.26282e-05
1.82125e-05
2.49493e-05
-5.22539e-05
-2.22395e-05
-5.70167e-05
1.30455e-06
7.69005e-06
2.41781e-05
1.07714e-05
-5.20684e-05
1.76707e-05
6.44929e-05
-6.11886e-05
5.44074e-05
-4.49324e-05
-7.05207e-05
6.23125e-06
3.27916e-05
4.70871e-05
1.32713e-06
1.32953e-05
-7.786e-05
-2.8183e-05
-6.89283e-06
0.000112601
3.68477e-05
-3.34253e-05
4.85624e-05
3.18346e-05
1.14889e-05
6.94897e-05
0.00013327
-7.38588e-05
-4.20364e-05
-1.68966e-05
2.04112e-05
8.13289e-06
-1.95543e-05
3.47553e-05
5.05911e-05
-6.30392e-05
-4.22685e-05
1.79628e-05
5.70343e-05
-6.66478e-07
2.83979e-05
-3.47795e-05
-8.2316e-05
-3.1693e-05
-5.51025e-05
-1.69482e-05
6.43994e-05
-5.57766e-05
5.25214e-05
-0.00011234
-7.10648e-05
-1.52233e-05
-1.60274e-05
-3.59302e-05
5.28323e-05
4.40276e-05
-4.75498e-06
-6.05781e-05
-2.03255e-05
1.72131e-05
2.40911e-05
-2.14998e-05
-3.80276e-05
1.84207e-05
-5.2297e-05
-1.48049e-05
-9.04264e-05
-1.86135e-05
-1.40985e-05
0.000121308
-2.54697e-05
5.25202e-05
3.79472e-05
3.11935e-05
-3.85304e-05
-5.10272e-06
-4.49661e-05
2.62952e-05
1.12422e-05
-1.86053e-05
1.74427e-05
-3.76215e-05
8.71089e-06
-3.17954e-05
7.14653e-05
-7.47014e-05
0.000101809
5.19645e-05
3.18056e-05
1.94155e-05
4.63653e-05
-3.00515e-06
1.62398e-05
7.99993e-05
3.67546e-06
-1.37995e-05
-5.21085e-05
-5.62191e-05
2.68223e-05
-3.78018e-05
-4.78228e-05
2.88633e-05
-2.68995e-05
-1.16543e-05
-5.02806e-05
3.10764e-05
-2.00588e-05
3.8109e-05
-8.71741e-05
-4.69054e-05
1.67189e-05
4.92436e-05
9.12813e-06
1.42609e-06
-6.69422e-05
-7.27302e-05
-1.43613e-05
-9.7442e-06
-1.56979e-05
2.67378e-05
-9.21225e-05
-5.88646e-05
-1.25881e-05
5.106e-05
-8.9749e-05
7.86012e-05
1.30895e-05
1.51685e-05
-0.000114673
-4.1971e-05
1.0648e-05
8.84158e-05
-6.75349e-06
-6.93044e-06
1.08078e-05
-9.15197e-05
-1.49587e-05
1.07783e-05
5.18087e-05
-3.28289e-05
4.25933e-05
9.43057e-06
7.85687e-07
4.03606e-05
-3.83495e-06
2.66732e-05
-2.2187e-05
6.1118e-07
2.16439e-06
1.83088e-05
-2.01634e-05
-7.52346e-05
-8.20152e-05
-4.08832e-05
3.06887e-05
3.11452e-05
-1.76033e-05
-1.14897e-05
3.87499e-05
9.27434e-06
1.17535e-05
-4.44882e-05
-5.2748e-05
-4.26525e-05
9.60719e-05
-3.91069e-05
-6.17567e-05
-4.51251e-05
4.72006e-06
-4.15778e-05
-1.74786e-06
2.5766e-05
4.8114e-05
-3.50769e-05
2.89143e-05
3.42637e-05
2.19491e-05
-2.03147e-05
-2.84293e-05
2.95843e-05
6.2325e-05
1.81495e-05
-1.77091e-05
-4.22893e-05
-3.51795e-06
6.32226e-05
3.54659e-06
7.63219e-06
-5.29399e-06
1.01704e-05
2.74981e-05
2.91364e-05
-2.6076e-05
-5.97399e-05
8.67879e-05
3.29313e-05
-1.45726e-05
-1.42367e-05
5.72905e-05
3.84287e-06
9.8189e-05
0.000121367
-2.85937e-05
2.49976e-05
7.87165e-06
-1.86716e-05
-1.7015e-05
-7.32372e-05
0.000112081
-1.25977e-05
-6.01781e-05
7.86246e-06
3.08845e-05
9.78378e-06
7.84011e-06
1.71363e-05
4.88944e-08
-2.67224e-05
-2.56811e-05
-4.13365e-05
-4.55832e-05
-1.76234e-05
-7.76583e-06
-4.82695e-05
7.13975e-05
1.64243e-05
3.01735e-05
-3.19597e-05
1.39838e-05
-1.39402e-05
-1.55886e-05
4.47663e-06
-1.65857e-05
8.27658e-05
5.56016e-05
5.67222e-06
3.54114e-05
2.86219e-06
-1.63056e-05
2.07491e-05
9.63244e-06
-1.45012e-05
-4.88877e-05
-4.07479e-05
-9.69227e-06
4.12578e-05
-2.15806e-05
-3.41523e-05
5.64964e-05
-1.37319e-05
-5.04202e-05
3.84741e-05
-2.33629e-05
-1.1957e-06
-5.9447e-05
5.95255e-06
6.40077e-05
-7.3972e-05
-2.23713e-05
-4.28851e-06
-7.4316e-05
-1.58099e-05
5.60061e-05
-2.41019e-05
5.20146e-05
4.58723e-05
-3.16427e-05
0.000122277
2.8997e-05
1.20708e-05
-2.74087e-05
-3.4468e-05
-3.20197e-05
5.98456e-05
4.27901e-05
-2.5427e-05
-1.62856e-05
4.25265e-05
4.55983e-05
-7.08054e-05
-4.53843e-05
-1.75916e-05
6.00133e-05
3.70808e-05
4.36973e-05
-7.64546e-06
2.17552e-05
1.48431e-05
1.47811e-05
3.49523e-05
1.44991e-05
-7.1735e-05
5.90795e-05
3.93535e-05
-1.62125e-05
4.74532e-05
-1.84565e-05
-3.84231e-05
8.46091e-05
5.78983e-05
5.29931e-05
-2.82946e-05
-1.40262e-05
-3.38198e-06
6.56866e-05
1.7016e-05
1.81663e-05
-1.45184e-05
-3.22157e-05
8.30158e-06
5.70646e-05
3.72089e-05
6.89619e-05
3.92866e-05
3.0786e-05
-1.59347e-05
4.17504e-05
8.47341e-06
-3.21828e-05
-1.07553e-05
-1.45923e-05
5.39318e-05
1.21888e-05
2.11241e-05
-2.64746e-05
1.1299e-05
-2.3908e-05
-1.44508e-05
1.09983e-05
-7.73533e-06
4.69037e-06
1.68593e-05
6.67055e-05
1.57994e-05
-0.00010758
-8.24991e-05
6.52287e-06
-5.85071e-05
5.17326e-05
1.84859e-05
1.66781e-05
-7.07683e-05
5.68526e-06
-1.86224e-05
-4.33442e-05
5.83278e-05
-4.15359e-05
-7.76742e-05
-1.33212e-05
-3.7475e-05
-1.10036e-06
5.0631e-05
3.4345e-05
5.21397e-05
2.95313e-05
4.71439e-05
-2.02373e-05
0.000134812
5.51657e-05
-3.82708e-05
-1.12217e-05
0.000111733
1.12853e-06
-1.38339e-05
-2.07322e-05
-1.05341e-05
5.75127e-06
2.51085e-05
-6.47182e-05
1.22236e-06
0.00011825
2.02319e-05
-6.96786e-05
-8.34583e-05
9.06889e-05
4.29542e-05
-6.09941e-05
-2.33634e-06
4.52413e-06
-2.48617e-05
-7.49843e-05
-6.3011e-06
3.39793e-05
6.28869e-05
-2.65893e-06
-2.97551e-05
-6.67726e-05
-1.08308e-05
7.42334e-06
3.0318e-05
-1.26914e-05
1.26481e-05
-3.24744e-05
-1.54034e-05
4.65965e-05
-6.0664e-07
-7.33235e-05
-3.61174e-05
3.19346e-05
5.07117e-05
5.52051e-05
-3.86607e-05
-2.71013e-05
-1.73168e-06
4.00437e-05
-1.28829e-05
1.15238e-05
2.75384e-05
1.51006e-05
2.02365e-05
3.2782e-05
-0.000103584
-2.37199e-05
5.62995e-05
-3.56052e-05
-8.5641e-05
0.000101617
-2.90703e-05
2.1579e-05
-5.19503e-05
6.29295e-06
-5.95591e-05
3.80247e-06
-4.01157e-05
2.2179e-05
-9.73791e-06
6.35828e-05
-2.76122e-05
-2.54386e-05
9.06726e-05
-5.5589e-05
-3.51437e-05
1.47807e-05
-2.30939e-05
3.46852e-05
-4.1014e-05
-1.09319e-05
2.98411e-05
3.45648e-05
-4.78458e-05
-5.78745e-05
-3.72988e-05
3.58615e-05
-1.02362e-05
-1.76757e-05
3.83474e-05
4.55102e-06
-3.07256e-05
-6.31751e-05
6.19062e-06
-5.68887e-05
0.000120349
-0.000117729
-6.80871e-05
1.01873e-05
-1.02159e-05
2.8216e-05
-1.9602e-05
-6.25581e-06
3.50747e-05
9.93139e-06
-5.96486e-05
5.40572e-05
-2.97572e-05
-7.26432e-07
-9.39076e-06
-2.64805e-05
5.89006e-05
9.35845e-05
7.95013e-05
-1.68921e-05
-6.8293e-05
-7.77042e-05
4.75622e-05
-1.31794e-06
1.17442e-05
5.16311e-05
-6.31507e-05
2.21427e-05
3.45717e-05
-3.89623e-05
4.92729e-05
9.85316e-06
-2.73689e-05
-7.18005e-05
-2.20723e-06
9.41241e-06
5.68593e-05
-2.01402e-05
-8.62207e-06
7.09016e-06
9.57516e-07
-2.91979e-05
-3.6772e-05
9.87086e-07
-7.08329e-06
-7.77076e-05
4.07124e-05
2.2804e-05
-2.33534e-05
-2.82727e-05
6.35628e-06
-3.10614e-05
-2.37789e-05
5.87651e-05
3.77757e-05
-8.88543e-05
1.88742e-05
2.8215e-05
2.42065e-05
-1.97268e-05
3.13718e-05
2.67723e-05
-2.78912e-05
-1.14413e-05
4.39791e-05
-1.84723e-05
6.28922e-06
-9.4159e-06
3.67081e-05
-1.65387e-05
-2.21905e-05
-3.26344e-05
2.11538e-05
-9.0529e-05
-2.25269e-05
7.1777e-06
-1.67808e-05
-5.12954e-05
-4.15267e-05
3.02582e-05
1.8758e-05
1.34514e-05
6.79975e-05
0.000103677
-2.68696e-05
-5.62216e-05
-7.36827e-06
-8.72952e-06
-8.22102e-06
-0.000119192
3.07655e-05
9.97077e-05
7.93551e-05
2.3524e-05
2.89525e-06
3.23567e-05
6.61903e-06
-1.27405e-05
-1.12371e-05
3.50189e-06
6.08948e-05
-6.73498e-06
5.99329e-05
-9.10822e-06
-4.9344e-05
-1.25006e-05
-1.79211e-05
3.41783e-05
-3.37977e-05
7.39528e-06
5.94537e-05
0.000102923
1.58971e-05
2.0744e-06
6.6084e-05
-5.49528e-05
-6.422e-05
4.83613e-06
5.8605e-05
-3.53628e-05
-0.000113618
-3.21864e-05
8.25233e-06
3.03728e-05
4.09468e-06
1.2588e-05
-2.57908e-05
4.03053e-06
-1.99422e-05
-0.000115459
-8.30309e-06
2.3432e-05
1.6768e-05
-9.89926e-06
-1.77938e-05
3.41063e-05
5.38377e-05
-8.89995e-07
-3.26862e-05
-1.44825e-05
1.08397e-05
2.86294e-05
1.41951e-05
-1.13219e-05
4.36334e-05
-9.70042e-06
4.36598e-05
-6.26058e-06
-6.49593e-05
8.33397e-05
7.3734e-06
-2.33591e-05
-5.2996e-05
8.2195e-06
-7.67077e-05
-5.47336e-05
1.69987e-05
-2.3528e-05
6.93038e-05
-5.89245e-05
-1.58964e-05
-3.797e-06
-4.36553e-05
1.74984e-06
6.90902e-06
-1.56339e-05
-1.26816e-05
-6.31332e-06
-2.87474e-05
6.35842e-05
-1.27364e-05
2.98874e-05
-1.94594e-05
0.000106661
-6.87313e-05
2.64239e-06
7.97835e-05
-7.28981e-05
-2.11626e-05
-1.829e-06
-5.65487e-06
-3.07187e-05
-1.66707e-07
6.13104e-05
-4.53606e-05
-3.93705e-06
2.74236e-05
5.10013e-05
6.30168e-06
2.15229e-05
-5.93152e-05
-4.52381e-05
-4.56914e-05
-4.39741e-05
-2.38917e-05
-5.03429e-05
-2.24267e-05
-6.28909e-05
1.1195e-05
0.000117077
1.08843e-05
1.60362e-06
7.11577e-06
-1.24834e-05
-9.79605e-05
1.17277e-05
-2.43349e-05
-6.52872e-05
-4.57343e-05
9.77495e-05
-2.84512e-05
2.46851e-05
2.89707e-05
-3.39514e-05
9.19261e-05
-5.06385e-05
-3.13993e-05
4.17931e-07
2.26257e-05
5.23938e-05
-4.63501e-05
3.01935e-06
-7.25875e-05
3.62422e-05
4.53794e-05
5.1028e-05
4.96121e-05
1.14616e-05
6.31472e-06
1.38574e-05
1.41456e-06
1.35627e-05
-5.94301e-05
-5.26091e-05
-3.14449e-05
3.68988e-05
-1.13039e-06
4.39386e-06
1.65974e-05
1.01099e-05
-4.56731e-05
-5.67068e-05
-2.16055e-05
3.75335e-06
3.021e-05
2.47174e-05
-3.70555e-05
-4.6816e-05
-8.03268e-05
-3.892e-05
8.4645e-05
4.35195e-05
1.98974e-05
-8.1755e-06
-6.95698e-06
-5.38765e-05
3.58439e-05
-6.1851e-05
7.90429e-05
-1.59476e-05
-3.99174e-05
-6.26176e-05
3.51212e-05
5.15335e-05
1.97045e-06
-3.47057e-06
-9.9499e-06
5.45719e-05
-4.3594e-05
-3.20035e-05
3.58508e-05
-2.33698e-05
-7.19342e-06
3.1627e-05
-2.36786e-05
4.7909e-05
6.11593e-05
-1.50182e-05
5.83362e-05
-1.60113e-05
-5.55509e-05
-4.11177e-05
3.92952e-05
8.73669e-05
-9.01869e-06
2.39071e-05
5.31233e-05
-2.11829e-06
3.75919e-05
-6.1114e-05
-5.37819e-05
4.75656e-05
-2.97428e-05
-7.41596e-05
-1.3014e-05
3.82878e-06
-4.95899e-05
-1.00632e-05
1.48064e-05
3.36766e-06
-4.77558e-05
-3.26619e-05
4.77955e-06
4.40954e-05
4.04307e-05
-4.65775e-05
-4.65792e-05
9.95374e-06
6.58096e-05
1.77755e-05
-1.76016e-05
-0.000102062
4.74708e-05
-2.01667e-05
-7.77515e-06
-8.79902e-06
4.50334e-05
-5.59201e-06
-5.70058e-05
-1.93105e-05
-3.39671e-05
4.7591e-05
2.16512e-05
-2.22091e-05
-2.47788e-05
-2.54153e-05
-5.89096e-06
-1.15653e-05
-4.13185e-05
-4.0236e-05
1.20653e-06
-4.48258e-05
2.04247e-05
3.38058e-06
-2.82914e-05
3.01641e-05
9.34873e-06
-6.71301e-05
-4.0574e-05
7.0933e-05
-3.39554e-05
-2.67514e-05
2.17739e-05
1.56361e-05
1.44396e-05
-8.9017e-06
-1.19936e-05
1.44324e-05
8.70278e-05
-9.6974e-07
1.24229e-05
-5.59279e-05
-1.92772e-05
3.90811e-05
3.07034e-06
-4.05494e-05
7.56641e-06
6.7285e-05
3.94993e-05
-7.47544e-05
-3.48642e-05
2.46887e-05
-5.16151e-05
3.76697e-06
-4.08544e-05
-1.83191e-05
8.32834e-05
-3.53502e-05
-3.56361e-05
-9.10205e-06
-2.37036e-05
-7.61582e-05
-4.31737e-05
-3.44524e-05
3.03325e-05
-5.93211e-05
-4.43424e-05
-1.38481e-05
2.80144e-05
4.43447e-05
7.11216e-06
-4.18979e-07
-3.3796e-05
5.63178e-05
4.62115e-05
-7.5162e-05
0.00010683
-4.85466e-05
-1.38164e-05
-8.41334e-07
-1.47609e-05
-6.57006e-05
-1.55214e-05