# vtk DataFile Version 1.0
Net Charge Density
ASCII
DATASET STRUCTURED_POINTS
DIMENSIONS 256 128 1
ORIGIN 0 0 0
SPACING 0.15625 0.15625 1
POINT_DATA 32768
SCALARS rhonet float
LOOKUP_TABLE default
-3.8963e-06
-9.51276e-05
0.000144792
9.63216e-05
3.56842e-05
0.000120451
-0.000118445
9.18584e-05
0.000154217
2.28998e-05
-3.75606e-05
0.000108726
0.00010382
7.94455e-05
0.000109346
4.99606e-05
8.77429e-05
0.000140236
4.05875e-05
-6.79099e-05
-6.4068e-06
0.00014186
0.000144767
4.77824e-05
3.72682e-05
2.07424e-05
7.74214e-05
9.0589e-05
-1.35218e-05
-7.27426e-05
5.23024e-05
3.97232e-05
4.3669e-05
6.90082e-05
1.24415e-05
0.000171713
1.68073e-05
7.28727e-05
7.73575e-05
-5.53089e-06
2.29317e-05
6.83195e-06
0.000136403
9.39814e-05
2.09387e-05
1.86829e-05
-3.16134e-05
6.95545e-05
0.000116214
7.88723e-05
-1.20079e-05
2.49783e-05
8.34422e-05
0.000148996
3.55958e-05
1.75037e-05
0.000151011
-5.17467e-05
5.67816e-06
7.16957e-05
5.02801e-05
6.06022e-05
7.16792e-06
8.01804e-05
8.22488e-05
-8.03834e-05
4.41819e-05
0.000136175
4.09957e-05
4.82834e-05
7.92338e-05
3.67116e-05
-2.69158e-05
4.96677e-05
-1.14902e-07
5.11555e-05
4.2086e-05
-3.8308e-05
9.21621e-05
0.000106615
8.71846e-05
2.54086e-05
7.49616e-05
0.000101106
4.54688e-05
-4.47989e-06
-1.66909e-05
6.70488e-05
0.000119669
-2.34875e-05
9.00027e-05
-1.47953e-05
-3.90531e-05
-6.2146e-06
-8.99176e-05
5.22719e-05
0.000157961
2.40977e-05
9.16887e-05
-2.49445e-05
0.000157723
9.09193e-05
-3.16929e-06
9.47253e-05
3.90385e-05
0.00013097
-2.57976e-07
-6.85491e-05
2.66277e-06
7.39995e-05
0.00013342
5.79273e-05
2.02985e-05
3.31154e-05
8.04213e-05
4.36595e-05
1.22662e-05
7.49694e-05
5.09601e-05
4.32273e-05
-3.98799e-05
-3.45635e-05
4.04445e-05
2.44898e-05
0.00011572
6.60869e-05
1.82552e-05
8.13099e-05
1.99641e-05
-1.88098e-05
0.000119797
9.26158e-05
-2.24425e-06
3.77486e-05
2.03244e-05
6.79679e-06
4.46087e-05
-3.19163e-05
4.68963e-05
-1.15028e-05
-4.98408e-05
2.32955e-05
2.09623e-05
0.000160761
9.88224e-05
2.06335e-06
0.000137836
1.15247e-05
-3.1124e-05
0.000132418
1.78269e-05
2.91318e-05
0.000108428
-8.34535e-06
3.45043e-05
4.32308e-05
5.74626e-06
3.4271e-05
-5.27606e-06
1.75423e-05
7.67781e-05
2.50081e-05
0.000112709
-2.20691e-05
3.25853e-05
2.55227e-05
5.84619e-05
-6.12724e-05
0.000105448
0.000137295
2.50289e-05
4.32234e-05
7.45818e-05
0.000111579
-2.02685e-05
-8.13289e-06
8.7293e-05
-8.23225e-05
1.15579e-05
3.31808e-05
8.87692e-05
-7.06001e-05
-3.18108e-05
5.65359e-06
1.04991e-05
7.98539e-05
4.142e-05
7.20923e-05
0.000102554
7.46857e-05
2.48841e-05
0.000198125
8.16119e-05
-6.56995e-05
6.24199e-05
0.000201229
4.75221e-05
8.3276e-05
7.86668e-05
-1.63091e-05
5.95988e-05
0.000149169
4.39015e-05
3.83352e-05
-1.00757e-05
6.97705e-05
-5.9888e-05
5.34236e-05
6.86805e-05
8.57905e-05
6.81026e-05
0.000137439
0.000106096
-2.40521e-05
0.000111081
-0.000131281
0.000102691
9.90944e-05
-5.28727e-05
-3.79211e-05
8.69745e-05
0.000114877
0.000176991
3.40523e-05
7.95298e-05
5.67444e-05
-3.69134e-05
-1.51404e-05
8.69032e-05
6.86069e-05
6.2281e-06
4.16543e-05
2.36374e-05
2.60695e-05
0.000121307
-3.55705e-05
-2.05768e-05
2.75008e-05
5.94511e-05
8.97981e-06
1.84991e-05
8.66939e-05
-5.82667e-05
-3.06987e-07
2.65903e-05
-1.44091e-05
-2.21957e-05
-3.95462e-05
0.000128655
-4.29596e-06
2.10484e-05
-3.85133e-05
0.000102293
2.14381e-05
2.40521e-05
4.18617e-05
-0.0001049
2.47046e-05
-6.30289e-05
-2.51194e-05
-2.38864e-05
5.1226e-05
-2.60444e-05
-7.57644e-05
4.9893e-05
-6.60465e-05
-4.28995e-05
2.33415e-05
-5.99083e-05
-8.02726e-05
3.00223e-06
-4.24262e-05
4.66255e-06
1.08914e-05
-2.15749e-05
-4.0608e-06
-5.82075e-05
-6.74934e-05
-0.000106139
-1.79204e-05
-2.00456e-05
-5.72717e-05
-2.52761e-05
7.72998e-06
-3.07411e-05
-8.53864e-05
-3.5389e-05
-8.36106e-06
2.74421e-05
-7.95682e-05
-6.67482e-05
2.31338e-05
-0.000103178
-3.37884e-05
1.98339e-05
-8.2033e-05
-5.15864e-05
-4.38412e-05
8.67306e-06
3.55998e-05
-2.4713e-05
4.87419e-06
-0.000112385
-3.1517e-05
3.88797e-05
-3.39415e-05
-6.56134e-05
-4.11931e-05
-3.17381e-05
2.9823e-05
-2.8532e-05
-3.54567e-05
-2.34862e-05
-0.00011611
1.48108e-05
-3.37929e-05
4.56305e-05
-5.12691e-05
-5.72851e-05
-3.73456e-05
-3.01469e-05
-6.05665e-05
-1.00287e-05
-7.96341e-05
-0.000109192
1.21049e-05
-4.39817e-05
9.01753e-06
-1.84355e-05
1.72419e-05
-5.13536e-05
-1.04333e-05
4.761e-05
-2.54938e-05
5.74086e-05
2.163e-07
-3.24125e-05
-5.04442e-05
-8.22558e-05
2.84824e-05
2.44663e-05
-6.16948e-05
-0.000158637
-4.16983e-05
-6.56582e-08
-1.69139e-05
8.77352e-06
5.33133e-05
3.15602e-06
-1.07943e-05
2.47147e-05
-5.96535e-06
3.43237e-05
-2.7311e-05
-6.84732e-06
-1.89466e-06
-4.36439e-05
-0.000106617
-3.9652e-05
-2.96772e-05
-3.55602e-05
1.64224e-05
-5.9124e-05
-4.27188e-05
-1.0673e-06
-6.00005e-06
5.43519e-05
-3.54241e-05
-7.13802e-05
-7.13186e-05
4.01697e-05
1.15472e-05
-5.2352e-05
-1.1155e-05
9.64524e-06
3.18993e-05
-8.5775e-05
1.39619e-05
-6.13794e-05
-7.74162e-06
-3.48627e-05
-1.67097e-05
-4.55658e-05
-6.96025e-05
1.70243e-05
-4.88099e-05
-2.07967e-05
1.59813e-05
-1.05534e-05
-2.35446e-05
-1.24411e-05
-3.31043e-05
-4.60127e-05
-1.33581e-05
-4.22457e-05
-8.323e-06
-5.94475e-05
-7.82585e-05
8.69727e-06
-2.01981e-06
-8.38251e-05
1.05486e-05
-3.22354e-05
-4.36762e-05
-0.000117681
-8.72568e-06
-3.99579e-05
-3.83075e-05
-7.16749e-05
9.37097e-06
3.00057e-05
-1.7041e-05
-2.3999e-05
-1.85578e-06
-5.11224e-05
-2.02561e-05
-8.13485e-05
-6.40946e-05
3.62427e-05
-8.0271e-05
-7.56292e-06
2.37462e-05
2.2117e-05
-5.27814e-05
-2.4254e-06
3.60704e-05
-9.46564e-05
1.02373e-05
-2.21475e-05
3.97039e-05
-4.13514e-05
-2.5548e-05
-5.70039e-06
3.04061e-05
-6.90698e-05
-4.77679e-05
3.67507e-05
-4.79689e-06
2.0595e-06
-4.86562e-05
-0.000107547
-6.60246e-05
-2.66007e-05
-2.248e-05
-9.32976e-06
-1.88574e-05
-0.00010145
6.32252e-06
3.69588e-05
4.61051e-06
-1.08486e-05
-2.36547e-05
-8.50842e-05
-3.90905e-05
4.81103e-05
-6.97735e-06
-7.51882e-05
-6.46275e-05
-4.37899e-05
3.07563e-05
-5.53512e-05
1.8311e-06
-5.12165e-05
9.71674e-05
1.17976e-05
-4.14073e-05
-5.2241e-05
-4.83998e-05
-4.73994e-05
3.21253e-05
-3.50828e-05
-7.29871e-05
1.69792e-06
-2.53877e-05
-1.98885e-05
4.50574e-06
-1.73203e-05
7.05675e-05
5.7089e-05
-6.70668e-05
-3.48981e-05
-2.7338e-05
-7.02046e-05
-2.06064e-05
2.42677e-05
8.58861e-05
-8.70349e-05
6.93533e-06
-4.34533e-05
-3.62699e-05
6.90322e-05
3.75875e-05
-6.27581e-05
-4.99142e-06
2.55415e-05
-5.11213e-05
2.26249e-05
-1.3483e-05
-4.8021e-05
-1.98238e-05
3.05451e-06
3.73246e-05
3.4268e-05
-1.23484e-05
-2.31678e-05
-0.000132199
-1.66823e-07
-7.60658e-06
5.12581e-05
-7.35326e-06
-7.36319e-05
5.01669e-06
-3.30425e-05
-1.99117e-06
5.00249e-05
-7.79773e-06
-2.33892e-05
-8.47992e-06
1.05426e-06
-1.92299e-05
7.13237e-05
-5.1523e-05
7.82241e-06
3.11632e-05
6.53439e-05
-4.67901e-05
-2.90642e-05
-1.14902e-05
-2.49564e-05
-9.34284e-05
-2.04818e-05
3.51591e-05
4.88634e-05
3.64083e-05
-1.6453e-05
3.77698e-05
6.14582e-05
-4.75241e-05
4.48449e-05
4.40083e-05
9.82289e-06
-5.1087e-05
1.23073e-05
2.34444e-05
7.04303e-05
4.96685e-05
-3.57145e-05
2.25287e-05
5.27385e-06
-2.51164e-05
4.80086e-05
3.404e-05
2.11631e-05
-2.89195e-05
-7.34264e-05
2.16749e-05
3.48729e-05
1.4212e-06
-4.63356e-05
1.81713e-06
-1.65711e-05
5.22443e-05
1.9271e-05
-4.25105e-05
-9.05943e-05
6.88445e-06
2.94287e-05
9.43302e-06
3.9076e-05
-4.01764e-05
2.79773e-05
-3.30706e-05
9.02758e-05
1.8706e-05
2.19363e-05
-2.38944e-05
3.89221e-05
7.95071e-05
-1.43016e-06
-1.07865e-05
-4.31229e-05
-5.63418e-05
3.65552e-05
5.69155e-06
-2.97654e-05
3.18503e-05
-3.75103e-05
-1.97686e-05
6.36959e-05
5.06416e-05
-4.80588e-05
-4.18772e-05
-9.31264e-06
-2.63563e-05
-1.33661e-05
5.09452e-05
7.4107e-05
-1.38807e-05
-5.52129e-05
-6.02389e-05
2.2547e-05
4.01654e-05
-3.5647e-05
4.60853e-05
6.04029e-05
1.00422e-05
-2.72854e-05
-6.84017e-05
1.03847e-05
-3.90665e-05
-6.67314e-05
1.89329e-05
-3.86647e-05
-7.26084e-05
1.55342e-05
3.44657e-05
-9.18226e-06
-2.52391e-05
3.49989e-05
6.7194e-05
-7.81403e-06
-2.34848e-05
1.90875e-05
-3.45565e-05
-3.24682e-06
3.17619e-05
-4.33619e-05
-4.44565e-05
-1.2916e-05
6.1908e-05
-1.54722e-05
-1.92428e-05
-9.33651e-07
1.07802e-05
-2.67862e-05
6.43285e-05
6.2841e-07
3.16114e-05
-3.45442e-05
-2.02106e-05
3.29814e-05
-8.92952e-06
-5.33774e-05
-6.58382e-05
-1.97744e-05
2.38302e-06
3.65478e-05
8.36782e-06
-1.8779e-06
1.48289e-05
-2.7574e-05
4.24777e-05
2.7952e-05
9.69107e-05
6.65835e-05
1.94267e-05
1.45665e-05
-1.36638e-05
5.90171e-05
5.77695e-05
-3.53301e-05
8.65558e-05
-1.88485e-05
-2.10224e-05
-5.39361e-05
1.12338e-05
-1.22988e-05
7.03163e-05
-1.07868e-05
6.14894e-06
5.77935e-05
3.47516e-05
-3.56395e-05
-5.85627e-06
4.38269e-05
2.99957e-05
1.48881e-05
3.09385e-06
-6.29969e-05
1.44137e-05
-9.34466e-05
4.10879e-05
-3.34156e-05
-7.2972e-05
6.78643e-06
-4.3138e-05
3.26062e-05
-5.40692e-05
-3.51891e-05
-7.38096e-06
-3.46788e-05
7.78143e-06
5.28586e-05
1.66991e-05
-1.61515e-06
7.61895e-05
-2.89606e-06
5.279e-05
3.30996e-05
2.69056e-05
3.2012e-05
-4.14012e-05
-7.91216e-05
6.70354e-06
-3.7106e-05
3.38652e-07
3.12874e-05
2.55893e-05
4.62428e-05
-7.34488e-06
3.85575e-05
-1.82482e-05
8.60395e-05
-3.51754e-05
-2.42115e-05
-2.44789e-05
3.96881e-05
3.96362e-05
-5.59585e-06
-1.5982e-05
5.26491e-05
-3.12824e-05
-9.51311e-06
1.32087e-05
3.03084e-05
4.01447e-05
-6.21302e-05
6.55791e-06
-4.02806e-05
7.6816e-05
-2.3057e-05
2.42679e-06
-2.36237e-05
-7.6571e-06
1.05565e-06
-7.5846e-05
1.89049e-05
4.24923e-05
2.73297e-06
-4.68805e-05
-0.000111356
2.32973e-05
1.92823e-05
1.66974e-06
4.11419e-05
-1.26262e-05
3.11458e-06
-2.15393e-05
-7.41893e-05
3.57796e-05
1.81665e-05
-4.43209e-05
1.38063e-05
2.49416e-05
-1.40069e-05
-5.45259e-05
-1.59675e-05
4.8483e-05
-4.49899e-06
-0.000139603
5.79741e-05
3.08066e-05
0.000100899
-3.72753e-05
3.8272e-05
1.96728e-05
-2.19456e-05
-3.16997e-05
-3.15027e-05
5.79793e-05
8.84747e-05
-9.06759e-06
-5.99886e-05
9.21846e-06
8.46386e-06
-1.83936e-08
-2.07854e-05
-3.9037e-05
0.000130275
-3.43213e-05
-4.70513e-05
5.37116e-05
-2.7963e-06
2.82296e-06
-3.79184e-05
-6.05411e-05
4.75422e-05
4.84361e-05
-1.75369e-05
3.74634e-05
-5.19101e-05
4.18178e-05
3.39497e-05
-6.99729e-05
2.73662e-05
3.88062e-05
1.67806e-05
-5.26785e-05
6.2869e-05
-2.19627e-05
-4.31014e-05
-7.40332e-06
-2.6679e-05
4.25469e-05
3.64974e-06
2.75725e-05
-4.7388e-05
-6.43695e-06
3.03091e-05
-2.26302e-05
-8.19343e-05
-4.95823e-05
1.36235e-05
3.36372e-05
4.53523e-05
-3.78173e-05
6.72049e-05
-2.02057e-05
-6.23035e-05
4.74694e-05
4.62765e-05
1.24057e-05
3.82878e-05
2.15028e-05
5.87143e-05
-6.49999e-05
-4.25663e-05
-1.34123e-05
4.39062e-05
4.78702e-05
-2.23201e-05
-6.05182e-05
1.98314e-06
-2.43739e-06
-3.00115e-05
1.48916e-05
2.92045e-05
7.28874e-05
7.06636e-05
-3.58252e-05
-0.000140627
2.58457e-05
1.2035e-06
-2.88254e-05
-4.69701e-05
5.7243e-05
3.12587e-05
1.75562e-05
-0.000107817
-1.58474e-05
1.13322e-05
3.99519e-05
3.28138e-05
-4.30103e-05
3.20361e-05
3.74884e-05
-3.91931e-05
2.83306e-05
3.71941e-05
-1.37144e-05
3.56367e-05
-5.4416e-05
8.30448e-05
3.03241e-05
-1.94272e-05
-2.67291e-05
6.8428e-05
4.12182e-05
-2.91597e-05
3.35347e-05
3.92139e-05
3.68372e-05
-3.48373e-05
-2.81516e-05
1.4167e-05
3.52944e-05
-7.15669e-05
-2.16158e-05
4.6005e-05
3.6499e-05
2.31859e-05
-3.12364e-05
-7.13484e-05
2.25476e-05
-3.5273e-05
7.69858e-05
-4.16434e-05
-1.37857e-05
7.4514e-05
-5.40672e-05
4.00445e-06
-1.77848e-05
-5.58051e-05
2.01231e-05
5.96e-06
5.05818e-05
6.31161e-05
-6.58249e-05
8.14188e-05
-4.32237e-05
-2.44335e-05
2.67203e-05
4.39491e-06
9.56806e-06
7.65512e-06
4.39049e-06
-4.22163e-05
2.17026e-05
1.01277e-05
-1.56357e-05
-7.88142e-05
-2.79718e-05
-7.3316e-06
2.6283e-05
6.22869e-06
2.384e-05
-8.0415e-06
5.26162e-05
3.00965e-05
-3.07955e-05
-8.6859e-05
1.14746e-05
3.87328e-05
1.11612e-05
-2.85618e-05
-9.12463e-06
-2.48116e-06
2.21189e-05
-3.22994e-06
2.53445e-05
2.25464e-05
3.20968e-05
-2.08742e-05
-3.06242e-06
6.05546e-06
-3.414e-06
3.4967e-05
-2.44876e-05
5.3474e-05
1.96625e-05
1.27887e-05
-1.15689e-05
2.92521e-05
2.87057e-06
3.39587e-05
-1.87166e-05
-2.88687e-06
-6.90413e-05
2.46686e-05
-5.03892e-06
-1.26833e-05
2.05979e-05
-2.634e-05
-2.66207e-06
-3.02468e-05
-7.38939e-05
-1.16545e-05
0.000124286
-9.67181e-05
2.30561e-05
4.08882e-05
1.12082e-05
1.89701e-05
2.29748e-05
-6.50405e-05
-1.85568e-05
-3.58939e-05
9.88785e-06
-2.25084e-05
-0.00011462
5.06444e-05
-0.000120174
-5.21548e-05
0.000129995
-2.85545e-05
-3.29316e-05
1.39808e-05
-3.08815e-06
-4.58455e-06
-6.87176e-05
5.01052e-07
2.54062e-05
-3.0681e-05
-4.83695e-05
-2.09834e-05
3.77465e-05
3.99079e-05
1.09905e-05
-3.37753e-05
2.43068e-05
4.91926e-05
4.58609e-05
-7.13922e-05
-6.57423e-05
-4.48681e-05
5.14662e-05
2.45078e-06
-1.54681e-06
-6.9671e-05
3.42261e-07
-1.04236e-05
6.89435e-06
-2.29036e-05
-2.35531e-06
-3.06224e-05
3.27411e-05
-3.22668e-06
-1.03372e-05
-2.52568e-05
2.84621e-05
9.52231e-05
-3.02619e-05
3.21711e-05
4.43814e-05
-4.54085e-05
-0.000101101
-3.30771e-05
0.00011101
6.25448e-05
-5.28278e-05
-0.000107186
-1.18129e-05
6.85671e-05
3.46118e-05
-5.40469e-05
-5.21372e-05
4.75174e-05
-4.06373e-05
-0.000119436
6.12033e-05
-1.81564e-05
-3.11725e-05
0.000105493
-4.54731e-05
-9.29444e-05
-5.38451e-05
9.50531e-06
-5.54987e-05
1.67229e-05
4.28222e-06
-7.23696e-05
6.52461e-06
4.59251e-05
6.777e-06
-2.06684e-06
5.32221e-05
2.83378e-05
-3.75983e-05
-4.85515e-05
0.000104193
-1.6281e-05
-5.7274e-06
-2.96998e-05
-2.67243e-06
-4.58125e-05
8.228e-06
-1.31112e-05
-4.38886e-05
-3.36708e-05
-5.49547e-05
4.80606e-05
-3.43904e-05
5.50938e-05
-3.26775e-05
-2.49938e-05
-9.60892e-06
3.26966e-05
-4.34383e-05
8.21743e-05
3.99072e-06
1.01076e-05
-2.64167e-05
-1.68546e-06
5.18314e-05
-5.05238e-05
7.65342e-05
-2.69967e-05
-2.84477e-05
5.25359e-06
1.91287e-05
5.75266e-05
-1.55068e-05
1.41476e-05
1.54795e-05
9.67544e-05
-2.60595e-05
2.79699e-06
-6.86492e-05
-4.36394e-06
5.35557e-06
-6.23404e-07
-1.12272e-05
2.76113e-05
-7.06448e-05
2.38863e-05
3.64641e-05
-5.86081e-06
-1.47322e-05
5.8536e-05
-1.46357e-06
5.05359e-07
-8.36363e-06
-6.68821e-05
-7.45908e-06
-5.66775e-05
5.49138e-05
-1.55686e-05
-6.51167e-05
1.9397e-05
-2.50094e-05
1.49552e-05
4.44492e-05
-8.87853e-06
-5.64917e-05
-7.07044e-05
-8.34162e-06
-2.96298e-05
-2.15264e-06
-1.83216e-05
-1.89315e-06
-0.000102778
8.74791e-06
3.24824e-05
3.07963e-05
-0.000103662
-3.61555e-05
2.02428e-05
8.39112e-05
4.75266e-06
-1.31455e-05
3.19695e-05
7.15023e-07
-3.71363e-05
-7.51382e-05
-6.92123e-05
-2.21247e-06
-7.09706e-05
1.36683e-06
-4.37516e-05
5.21004e-05
-3.20331e-05
-2.11229e-05
9.38296e-06
-1.06043e-06
4.85079e-06
-2.59297e-05
5.72978e-05
-2.03837e-05
4.02204e-05
1.71227e-05
-4.36115e-05
4.79061e-06
-4.09898e-05
-3.48547e-07
2.30947e-05
-3.31624e-05
1.34478e-05
1.23587e-05
-2.61037e-05
-4.63815e-05
1.17687e-05
-4.40201e-05
0.000100773
4.1617e-05
5.95754e-05
5.72717e-06
3.63542e-06
3.7217e-05
-2.83868e-05
-2.65327e-05
-3.87034e-05
-3.32443e-05
-2.94496e-06
-4.83461e-06
-7.42385e-05
-9.21183e-05
-4.12926e-05
9.36044e-05
1.79685e-05
2.46139e-05
5.07897e-05
-3.90918e-05
-4.86935e-05
-6.07768e-05
2.9187e-05
-7.01523e-05
2.39766e-05
5.71006e-05
1.43816e-05
-8.54452e-05
6.48925e-05
5.64102e-06
1.15011e-05
-0.000120717
5.33741e-05
7.36077e-05
5.39119e-06
1.38739e-05
1.18412e-05
-9.65106e-06
3.66957e-05
-3.03434e-05
4.71816e-05
6.17245e-05
-4.68106e-06
-4.04327e-05
-2.984e-05
4.8338e-06
-1.19186e-06
4.36949e-05
-1.84926e-06
-1.1377e-05
-1.70608e-05
7.82479e-05
-4.58281e-06
1.79139e-05
-3.62853e-05
-7.78637e-05
7.3835e-05
-9.1931e-05
-5.20796e-06
2.09289e-05
2.30619e-06
7.05889e-05
3.83819e-05
7.42066e-06
5.50142e-05
-1.01444e-05
4.60939e-05
-1.68381e-05
-5.88747e-05
-4.9189e-05
5.14211e-05
5.45878e-05
-1.98534e-05
5.81009e-05
3.0201e-05
1.38805e-05
2.24961e-05
6.25567e-05
6.90145e-06
-8.80085e-05
-1.34254e-05
-5.00795e-06
4.87007e-05
5.9925e-05
6.30916e-05
1.42679e-06
2.14428e-05
-2.66384e-05
-9.90403e-06
-6.22044e-05
-1.60285e-05
3.25951e-05
-3.85356e-05
-1.90411e-05
5.31541e-05
-2.28165e-05
1.54101e-05
-4.23559e-05
-5.64614e-07
-5.11485e-05
-1.07914e-05
-0.000114607
2.06347e-05
1.91702e-05
7.2854e-05
2.73278e-05
-4.94909e-05
5.05783e-05
5.27868e-05
6.41992e-05
-7.99017e-06
4.43973e-05
-4.86511e-05
-2.58868e-05
-3.12888e-05
9.76645e-05
-4.46031e-05
-4.87091e-05
2.70448e-05
-5.04586e-05
1.36552e-05
-9.01837e-05
-0.000131355
6.04795e-05
5.67494e-05
-1.70098e-05
2.47725e-05
-9.10822e-06
5.16701e-05
-8.06585e-05
3.82911e-05
3.78352e-05
1.59071e-05
-7.97585e-06
-6.65523e-06
3.57419e-05
3.13773e-05
-9.32615e-05
-4.72957e-05
-9.38077e-05
-4.97689e-05
6.84742e-05
-3.54392e-05
9.14512e-06
-3.66229e-05
3.87212e-05
1.69345e-05
4.47605e-05
-5.40492e-05
2.94941e-05
6.61319e-05
1.22408e-05
-6.64288e-05
1.13389e-06
1.4817e-05
-1.36936e-05
6.0895e-05
-9.08971e-07
7.89308e-05
9.09704e-06
5.26162e-05
-9.66366e-05
3.41134e-05
6.60494e-06
-1.27817e-05
-4.43452e-05
-2.06705e-05
3.15113e-06
-9.30391e-07
-6.30611e-05
-0.000100798
-4.15874e-05
-9.15083e-05
-4.81862e-05
5.62917e-05
-1.52455e-05
-5.22907e-05
-2.41201e-05
-1.08291e-05
-4.57693e-05
-4.23093e-05
1.19056e-05
2.83605e-05
-1.41368e-05
-5.28245e-05
-6.1348e-05
1.77324e-05
1.07328e-05
-2.08279e-05
5.96312e-05
1.7907e-06
2.51199e-05
-2.36353e-05
5.88668e-05
3.18954e-05
4.76112e-05
-7.31894e-05
7.22464e-05
-0.000100921
-6.24103e-06
6.49313e-05
8.48935e-06
3.23071e-05
-3.30748e-06
-4.32202e-05
2.37813e-06
1.99971e-05
-1.27293e-05
9.59344e-06
3.61402e-05
2.75427e-05
6.92136e-05
-2.72389e-06
-6.3224e-05
-6.14591e-06
-7.61054e-06
-1.02115e-05
4.45031e-05
5.20074e-06
2.67307e-05
-6.6295e-06
-4.79829e-06
-2.94804e-05
1.43554e-05
5.68968e-06
6.79196e-05
9.01218e-06
3.43907e-05
1.84251e-05
1.29043e-05
-4.46525e-05
3.45935e-05
3.36545e-05
1.9382e-06
-1.88092e-05
4.4687e-05
-5.2389e-05
6.75365e-05
7.74649e-05
6.37153e-06
8.13846e-05
-3.18103e-05
2.20668e-05
-1.73562e-05
-2.878e-05
-6.8658e-05
1.19235e-05
2.47911e-05
1.2371e-05
-3.48674e-05
2.16786e-05
-2.20754e-05
-3.52517e-06
1.23347e-05
1.70898e-06
2.97127e-05
-6.88558e-05
-1.33739e-05
9.18957e-05
-3.43517e-05
1.47279e-05
-1.23635e-05
4.9457e-05
2.42068e-05
-4.44683e-05
5.05935e-05
0.000106778
9.66929e-05
6.52506e-05
8.90112e-07
-7.20669e-06
-1.14564e-05
6.66906e-05
-5.448e-06
4.01791e-05
-2.33975e-05
4.17558e-05
-3.41273e-05
-2.13978e-05
6.28131e-06
-2.62643e-05
3.5821e-05
-8.93143e-05
4.69465e-05
-3.57553e-05
3.30252e-05
2.34644e-05
-9.97116e-05
2.21337e-05
3.57023e-05
-1.87465e-05
2.13265e-05
-6.7823e-05
2.71619e-05
-5.16976e-05
5.68146e-05
4.88441e-05
-1.74806e-05
3.80412e-05
4.54168e-05
1.1788e-05
-8.37969e-06
2.07493e-05
-2.05647e-05
5.28255e-05
-7.57062e-05
-4.26273e-05
-7.67293e-06
2.04984e-05
-1.54352e-05
-3.1233e-05
1.174e-05
6.2165e-05
4.88069e-05
4.33601e-06
-0.000127571
-5.02244e-05
-6.86679e-05
-6.60995e-05
3.09135e-05
7.61508e-05
-7.01356e-05
-7.03032e-06
9.28517e-06
4.82404e-05
3.84008e-06
8.47329e-06
-6.75763e-05
-1.85829e-05
1.21738e-05
-8.66782e-06
-3.1952e-05
-1.42828e-05
3.18396e-06
7.33056e-06
1.82407e-05
2.56517e-05
-6.78841e-05
-4.71435e-06
3.49286e-05
-5.05327e-05
1.07936e-05
-1.50149e-05
-1.63049e-05
-2.95392e-05
9.53892e-05
2.63904e-05
-1.76691e-05
-2.15018e-05
-1.27996e-05
8.03324e-06
-1.35811e-05
2.63904e-05
-7.18515e-06
-1.90847e-05
2.17276e-05
5.39329e-05
-9.03432e-05
5.7904e-05
-1.44776e-05
-1.46059e-05
-3.83232e-05
-4.54391e-05
2.6162e-05
5.7482e-05
2.07166e-05
1.80581e-05
2.61938e-05
-7.22194e-06
-2.65973e-05
2.38707e-05
-3.81796e-05
-3.29993e-05
2.86612e-05
4.19584e-06
5.3414e-05
-1.29021e-05
-4.54625e-06
9.10496e-05
1.63324e-05
1.69137e-05
-4.63275e-05
3.55742e-05
-3.91714e-05
2.29462e-05
1.72228e-05
3.08652e-06
6.80585e-05
6.72805e-05
-1.70235e-05
-7.54674e-06
4.5587e-05
-1.23878e-05
-6.61262e-06
0.000122597
3.26278e-05
1.82129e-05
2.49492e-05
-5.22535e-05
-2.22391e-05
-5.70167e-05
1.30443e-06
7.69016e-06
2.41781e-05
1.07717e-05
-5.20679e-05
1.76703e-05
6.44939e-05
-6.11887e-05
5.44074e-05
-4.49318e-05
-7.05206e-05
6.23101e-06
3.2792e-05
4.70879e-05
1.32713e-06
1.32952e-05
-7.78603e-05
-2.81835e-05
-6.8926e-06
0.000112601
3.6848e-05
-3.3426e-05
4.85629e-05
3.18342e-05
1.14887e-05
6.94899e-05
0.00013327
-7.38591e-05
-4.20364e-05
-1.68966e-05
2.04113e-05
8.13324e-06
-1.95546e-05
3.47552e-05
5.05914e-05
-6.30394e-05
-4.22691e-05
1.79628e-05
5.70342e-05
-6.66478e-07
2.83979e-05
-3.47802e-05
-8.23168e-05
-3.16928e-05
-5.51024e-05
-1.69488e-05
6.43998e-05
-5.57757e-05
5.25211e-05
-0.000112341
-7.1065e-05
-1.52236e-05
-1.60275e-05
-3.593e-05
5.28326e-05
4.40278e-05
-4.75475e-06
-6.05781e-05
-2.0325e-05
1.72127e-05
2.40909e-05
-2.15002e-05
-3.8028e-05
1.84209e-05
-5.2297e-05
-1.48052e-05
-9.04262e-05
-1.86132e-05
-1.40982e-05
0.000121308
-2.547e-05
5.25203e-05
3.79478e-05
3.11938e-05
-3.85309e-05
-5.1026e-06
-4.4966e-05
2.62946e-05
1.12428e-05
-1.86056e-05
1.74429e-05
-3.76212e-05
8.71124e-06
-3.17957e-05
7.14646e-05
-7.4702e-05
0.000101809
5.19645e-05
3.18051e-05
1.9416e-05
4.63661e-05
-3.00456e-06
1.62399e-05
7.99992e-05
3.6757e-06
-1.37998e-05
-5.21087e-05
-5.62187e-05
2.68223e-05
-3.78024e-05
-4.78231e-05
2.88634e-05
-2.6899e-05
-1.1655e-05
-5.02804e-05
3.10763e-05
-2.00592e-05
3.81093e-05
-8.71741e-05
-4.69048e-05
1.67195e-05
4.92438e-05
9.12859e-06
1.42597e-06
-6.69418e-05
-7.27301e-05
-1.43612e-05
-9.74513e-06
-1.56978e-05
2.67379e-05
-9.21222e-05
-5.88647e-05
-1.2588e-05
5.10605e-05
-8.97488e-05
7.86013e-05
1.30896e-05
1.51683e-05
-0.000114672
-4.19712e-05
1.06478e-05
8.84156e-05
-6.75302e-06
-6.93032e-06
1.08085e-05
-9.15199e-05
-1.49586e-05
1.07785e-05
5.18089e-05
-3.28289e-05
4.25937e-05
9.43081e-06
7.85571e-07
4.0361e-05
-3.83472e-06
2.66723e-05
-2.21868e-05
6.1118e-07
2.16463e-06
1.83086e-05
-2.01633e-05
-7.52342e-05
-8.20155e-05
-4.08834e-05
3.06882e-05
3.11448e-05
-1.76033e-05
-1.14897e-05
3.87502e-05
9.27411e-06
1.17533e-05
-4.4487e-05
-5.27485e-05
-4.26527e-05
9.6072e-05
-3.9107e-05
-6.17563e-05
-4.51251e-05
4.72006e-06
-4.15778e-05
-1.74821e-06
2.57662e-05
4.81147e-05
-3.50764e-05
2.89148e-05
3.42637e-05
2.19487e-05
-2.03148e-05
-2.84294e-05
2.95844e-05
6.23253e-05
1.81501e-05
-1.77094e-05
-4.22896e-05
-3.51784e-06
6.32223e-05
3.54671e-06
7.6323e-06
-5.29399e-06
1.01699e-05
2.74985e-05
2.91361e-05
-2.60756e-05
-5.97399e-05
8.67881e-05
3.29314e-05
-1.45725e-05
-1.42371e-05
5.72897e-05
3.84275e-06
9.81892e-05
0.000121367
-2.85936e-05
2.49984e-05
7.87189e-06
-1.86714e-05
-1.70148e-05
-7.32372e-05
0.00011208
-1.2598e-05
-6.01782e-05
7.86199e-06
3.08843e-05
9.78354e-06
7.84115e-06
1.71363e-05
4.84288e-08
-2.67222e-05
-2.56815e-05
-4.13362e-05
-4.55838e-05
-1.76241e-05
-7.76572e-06
-4.82693e-05
7.13979e-05
1.64236e-05
3.01733e-05
-3.19594e-05
1.39842e-05
-1.39404e-05
-1.55891e-05
4.47652e-06
-1.65857e-05
8.27659e-05
5.56018e-05
5.67257e-06
3.54112e-05
2.86242e-06
-1.63051e-05
2.07496e-05
9.6322e-06
-1.45014e-05
-4.88881e-05
-4.07485e-05
-9.69227e-06
4.12572e-05
-2.15805e-05
-3.4153e-05
5.64966e-05
-1.37317e-05
-5.04199e-05
3.84741e-05
-2.33628e-05
-1.19605e-06
-5.94473e-05
5.95266e-06
6.40077e-05
-7.39722e-05
-2.23715e-05
-4.28909e-06
-7.43152e-05
-1.58095e-05
5.60062e-05
-2.41019e-05
5.20148e-05
4.58725e-05
-3.16428e-05
0.000122277
2.89967e-05
1.20706e-05
-2.74088e-05
-3.44682e-05
-3.20205e-05
5.98455e-05
4.27903e-05
-2.54272e-05
-1.6286e-05
4.25265e-05
4.55978e-05
-7.08054e-05
-4.53845e-05
-1.75914e-05
6.00133e-05
3.70811e-05
4.36975e-05
-7.64523e-06
2.17552e-05
1.48432e-05
1.4781e-05
3.49524e-05
1.44993e-05
-7.17351e-05
5.90798e-05
3.93526e-05
-1.62122e-05
4.7453e-05
-1.8456e-05
-3.84236e-05
8.46089e-05
5.78987e-05
5.29924e-05
-2.82943e-05
-1.4026e-05
-3.38187e-06
6.56875e-05
1.70163e-05
1.81666e-05
-1.45179e-05
-3.22154e-05
8.30193e-06
5.70642e-05
3.72084e-05
6.89619e-05
3.92868e-05
3.07859e-05
-1.59348e-05
4.17503e-05
8.47306e-06
-3.21823e-05
-1.07549e-05
-1.45922e-05
5.3932e-05
1.21887e-05
2.11236e-05
-2.64749e-05
1.12988e-05
-2.39075e-05
-1.44508e-05
1.09987e-05
-7.73487e-06
4.69002e-06
1.68593e-05
6.67055e-05
1.57994e-05
-0.000107579
-8.24992e-05
6.52275e-06
-5.85074e-05
5.17326e-05
1.84864e-05
1.66779e-05
-7.07679e-05
5.68526e-06
-1.86226e-05
-4.33435e-05
5.83282e-05
-4.15361e-05
-7.7674e-05
-1.33207e-05
-3.74744e-05
-1.09978e-06
5.06302e-05
3.4345e-05
5.21396e-05
2.95317e-05
4.71442e-05
-2.02376e-05
0.000134813
5.51658e-05
-3.82711e-05
-1.12215e-05
0.000111733
1.12806e-06
-1.38339e-05
-2.07328e-05
-1.05338e-05
5.75138e-06
2.51089e-05
-6.47177e-05
1.22236e-06
0.00011825
2.02316e-05
-6.96785e-05
-8.3458e-05
9.06889e-05
4.29546e-05
-6.09942e-05
-2.33622e-06
4.52378e-06
-2.48614e-05
-7.49839e-05
-6.30168e-06
3.39792e-05
6.28864e-05
-2.65916e-06
-2.97541e-05
-6.67729e-05
-1.08313e-05
7.42276e-06
3.0318e-05
-1.26916e-05
1.26483e-05
-3.24743e-05
-1.54036e-05
4.65959e-05
-6.06524e-07
-7.3324e-05
-3.61172e-05
3.19348e-05
5.07121e-05
5.52047e-05
-3.86607e-05
-2.71016e-05
-1.73203e-06
4.00436e-05
-1.28825e-05
1.15237e-05
2.75385e-05
1.50998e-05
2.02362e-05
3.27817e-05
-0.000103584
-2.37206e-05
5.62994e-05
-3.56047e-05
-8.56415e-05
0.000101617
-2.907e-05
2.15787e-05
-5.19508e-05
6.29365e-06
-5.95585e-05
3.80236e-06
-4.01157e-05
2.21787e-05
-9.73756e-06
6.35827e-05
-2.76129e-05
-2.54394e-05
9.06724e-05
-5.55885e-05
-3.5144e-05
1.4781e-05
-2.3094e-05
3.46848e-05
-4.1014e-05
-1.09317e-05
2.98411e-05
3.45649e-05
-4.7846e-05
-5.78745e-05
-3.72985e-05
3.58619e-05
-1.02358e-05
-1.76755e-05
3.83466e-05
4.55114e-06
-3.07255e-05
-6.31751e-05
6.19143e-06
-5.68882e-05
0.000120349
-0.000117729
-6.80871e-05
1.01873e-05
-1.02158e-05
2.82162e-05
-1.96024e-05
-6.25534e-06
3.50755e-05
9.93186e-06
-5.96482e-05
5.40575e-05
-2.97579e-05
-7.25966e-07
-9.39087e-06
-2.64799e-05
5.89004e-05
9.35839e-05
7.95014e-05
-1.68921e-05
-6.82932e-05
-7.77042e-05
4.75618e-05
-1.31747e-06
1.17447e-05
5.16312e-05
-6.31508e-05
2.21427e-05
3.45722e-05
-3.89623e-05
4.92726e-05
9.85316e-06
-2.7369e-05
-7.18015e-05
-2.20723e-06
9.41241e-06
5.68596e-05
-2.01396e-05
-8.62218e-06
7.09016e-06
9.57632e-07
-2.91977e-05
-3.67718e-05
9.87202e-07
-7.08294e-06
-7.77075e-05
4.07121e-05
2.28038e-05
-2.3353e-05
-2.82733e-05
6.35558e-06
-3.10612e-05
-2.37781e-05
5.87649e-05
3.77757e-05
-8.88543e-05
1.88742e-05
2.82151e-05
2.42072e-05
-1.9727e-05
3.13721e-05
2.6772e-05
-2.78912e-05
-1.14411e-05
4.39794e-05
-1.84727e-05
6.28992e-06
-9.41579e-06
3.67077e-05
-1.65383e-05
-2.21911e-05
-3.26342e-05
2.11541e-05
-9.0529e-05
-2.25268e-05
7.17829e-06
-1.67803e-05
-5.12953e-05
-4.15266e-05
3.02588e-05
1.8758e-05
1.34516e-05
6.79975e-05
0.000103677
-2.68698e-05
-5.62214e-05
-7.36886e-06
-8.72917e-06
-8.22055e-06
-0.000119192
3.07658e-05
9.97077e-05
7.93557e-05
2.35228e-05
2.8956e-06
3.23568e-05
6.61938e-06
-1.27401e-05
-1.12372e-05
3.50224e-06
6.08944e-05
-6.73474e-06
5.99325e-05
-9.10787e-06
-4.93433e-05
-1.25011e-05
-1.7921e-05
3.41783e-05
-3.37975e-05
7.3954e-06
5.94539e-05
0.000102923
1.5897e-05
2.0744e-06
6.60842e-05
-5.49527e-05
-6.42203e-05
4.83647e-06
5.8605e-05
-3.53621e-05
-0.000113618
-3.2186e-05
8.25222e-06
3.03728e-05
4.09491e-06
1.25881e-05
-2.57909e-05
4.03007e-06
-1.99422e-05
-0.000115459
-8.30297e-06
2.34317e-05
1.67678e-05
-9.89949e-06
-1.77936e-05
3.41061e-05
5.38377e-05
-8.8918e-07
-3.26862e-05
-1.44828e-05
1.08394e-05
2.86296e-05
1.41956e-05
-1.13219e-05
4.3634e-05
-9.70031e-06
4.36598e-05
-6.25965e-06
-6.49594e-05
8.33397e-05
7.37351e-06
-2.33587e-05
-5.29963e-05
8.21904e-06
-7.67075e-05
-5.47338e-05
1.69985e-05
-2.35285e-05
6.93037e-05
-5.89247e-05
-1.58965e-05
-3.79665e-06
-4.36547e-05
1.74972e-06
6.90855e-06
-1.56335e-05
-1.26815e-05
-6.31344e-06
-2.87473e-05
6.35836e-05
-1.27368e-05
2.98877e-05
-1.94591e-05
0.000106661
-6.8731e-05
2.64239e-06
7.97831e-05
-7.28981e-05
-2.11622e-05
-1.82877e-06
-5.65476e-06
-3.07185e-05
-1.66357e-07
6.13102e-05
-4.53608e-05
-3.93693e-06
2.7423e-05
5.10007e-05
6.30168e-06
2.15231e-05
-5.93152e-05
-4.52378e-05
-4.56921e-05
-4.3974e-05
-2.38918e-05
-5.03425e-05
-2.24267e-05
-6.28908e-05
1.11945e-05
0.000117078
1.08845e-05
1.60316e-06
7.11554e-06
-1.2483e-05
-9.79607e-05
1.17283e-05
-2.43357e-05
-6.52873e-05
-4.5734e-05
9.77496e-05
-2.84505e-05
2.46848e-05
2.89715e-05
-3.39509e-05
9.1926e-05
-5.06382e-05
-3.13993e-05
4.17931e-07
2.26258e-05
5.23943e-05
-4.63508e-05
3.02005e-06
-7.25882e-05
3.62428e-05
4.53799e-05
5.10277e-05
4.9612e-05
1.14619e-05
6.31483e-06
1.3857e-05
1.41433e-06
1.35629e-05
-5.94298e-05
-5.26095e-05
-3.14451e-05
3.68984e-05
-1.13051e-06
4.39375e-06
1.65978e-05
1.01096e-05
-4.56733e-05
-5.67067e-05
-2.1606e-05
3.7537e-06
3.02105e-05
2.47173e-05
-3.70555e-05
-4.68164e-05
-8.03272e-05
-3.89206e-05
8.46449e-05
4.35198e-05
1.98975e-05
-8.17573e-06
-6.95721e-06
-5.38761e-05
3.58444e-05
-6.18506e-05
7.9043e-05
-1.59484e-05
-3.99176e-05
-6.26174e-05
3.51223e-05
5.15329e-05
1.96998e-06
-3.47092e-06
-9.94978e-06
5.45722e-05
-4.35945e-05
-3.2003e-05
3.5851e-05
-2.33697e-05
-7.19354e-06
3.16275e-05
-2.36789e-05
4.79079e-05
6.116e-05
-1.50186e-05
5.83363e-05
-1.60108e-05
-5.55501e-05
-4.11182e-05
3.92956e-05
8.73671e-05
-9.018e-06
2.39069e-05
5.31231e-05
-2.11794e-06
3.75923e-05
-6.11141e-05
-5.37824e-05
4.7565e-05
-2.9743e-05
-7.41599e-05
-1.30142e-05
3.82937e-06
-4.959e-05
-1.00632e-05
1.48066e-05
3.36685e-06
-4.77559e-05
-3.26616e-05
4.77978e-06
4.40958e-05
4.04308e-05
-4.65775e-05
-4.65794e-05
9.95398e-06
6.58099e-05
1.77755e-05
-1.76015e-05
-0.000102062
4.74707e-05
-2.01662e-05
-7.77561e-06
-8.79914e-06
4.50333e-05
-5.59143e-06
-5.70053e-05
-1.93104e-05
-3.39671e-05
4.75905e-05
2.16514e-05
-2.22095e-05
-2.47782e-05
-2.54154e-05
-5.89062e-06
-1.15664e-05
-4.13182e-05
-4.02362e-05
1.20641e-06
-4.48264e-05
2.04252e-05
3.38117e-06
-2.82921e-05
3.01651e-05
9.34838e-06
-6.71304e-05
-4.0574e-05
7.09336e-05
-3.39558e-05
-2.67511e-05
2.17736e-05
1.56356e-05
1.444e-05
-8.9017e-06
-1.19939e-05
1.44329e-05
8.70281e-05
-9.69972e-07
1.24229e-05
-5.59281e-05
-1.92774e-05
3.90813e-05
3.06987e-06
-4.055e-05
7.56618e-06
6.7285e-05
3.94989e-05
-7.47541e-05
-3.48648e-05
2.46884e-05
-5.16153e-05
3.76662e-06
-4.08548e-05
-1.83189e-05
8.32833e-05
-3.53502e-05
-3.56359e-05
-9.10205e-06
-2.37034e-05
-7.61582e-05
-4.31736e-05
-3.44524e-05
3.03312e-05
-5.93207e-05
-4.43421e-05
-1.38484e-05
2.80142e-05
4.43449e-05
7.11228e-06
-4.18629e-07
-3.37958e-05
5.6318e-05
4.62118e-05
-7.51619e-05
0.000106831
-4.85462e-05
-1.38164e-05
-8.41566e-07
-1.47606e-05
-6.57005e-05