# vtk DataFile Version 1.0
Net Charge Density
ASCII
DATASET STRUCTURED_POINTS
DIMENSIONS 256 128 1
ORIGIN 0 0 0
SPACING 0.15625 0.15625 1
POINT_DATA 32768
SCALARS rhonet float
LOOKUP_TABLE default
-3.89607e-06
-9.51276e-05
0.000144791
9.63222e-05
3.56839e-05
0.000120451
-0.000118445
9.18581e-05
0.000154216
2.28995e-05
-3.75605e-05
0.000108725
0.00010382
7.94458e-05
0.000109346
4.99606e-05
8.77432e-05
0.000140236
4.05877e-05
-6.79101e-05
-6.40715e-06
0.000141859
0.000144767
4.77821e-05
3.72682e-05
2.07423e-05
7.7422e-05
9.05894e-05
-1.35218e-05
-7.27425e-05
5.23024e-05
3.97239e-05
4.36691e-05
6.90082e-05
1.24415e-05
0.000171713
1.68073e-05
7.28727e-05
7.73576e-05
-5.53043e-06
2.29318e-05
6.83218e-06
0.000136404
9.3981e-05
2.09392e-05
1.8683e-05
-3.16133e-05
6.95544e-05
0.000116213
7.88718e-05
-1.20078e-05
2.49782e-05
8.34428e-05
0.000148996
3.5595e-05
1.75037e-05
0.000151011
-5.17471e-05
5.67804e-06
7.16959e-05
5.02795e-05
6.06023e-05
7.16792e-06
8.018e-05
8.22491e-05
-8.03831e-05
4.41822e-05
0.000136175
4.09957e-05
4.82835e-05
7.9234e-05
3.6711e-05
-2.69159e-05
4.9667e-05
-1.14902e-07
5.11557e-05
4.2086e-05
-3.83081e-05
9.21625e-05
0.000106615
8.71844e-05
2.54083e-05
7.49615e-05
0.000101105
4.54682e-05
-4.48001e-06
-1.66912e-05
6.70489e-05
0.000119669
-2.34878e-05
9.00028e-05
-1.47952e-05
-3.90527e-05
-6.21448e-06
-8.99174e-05
5.2272e-05
0.000157961
2.40979e-05
9.16878e-05
-2.49448e-05
0.000157723
9.09192e-05
-3.16929e-06
9.47259e-05
3.9038e-05
0.000130971
-2.58093e-07
-6.85495e-05
2.66265e-06
7.39997e-05
0.00013342
5.79278e-05
2.02988e-05
3.31154e-05
8.04212e-05
4.36594e-05
1.22655e-05
7.49688e-05
5.09605e-05
4.32276e-05
-3.98804e-05
-3.45636e-05
4.04444e-05
2.44898e-05
0.00011572
6.60872e-05
1.82549e-05
8.13096e-05
1.99638e-05
-1.88099e-05
0.000119797
9.26164e-05
-2.24414e-06
3.77488e-05
2.03241e-05
6.79702e-06
4.46094e-05
-3.19162e-05
4.68963e-05
-1.15026e-05
-4.98409e-05
2.32955e-05
2.09623e-05
0.000160761
9.88228e-05
2.06369e-06
0.000137836
1.15242e-05
-3.11239e-05
0.000132418
1.78273e-05
2.91315e-05
0.000108428
-8.3457e-06
3.45043e-05
4.32306e-05
5.74649e-06
3.4271e-05
-5.27618e-06
1.75427e-05
7.6778e-05
2.50083e-05
0.000112709
-2.20694e-05
3.25853e-05
2.55229e-05
5.84621e-05
-6.12718e-05
0.000105448
0.000137296
2.50298e-05
4.32235e-05
7.45823e-05
0.000111579
-2.02681e-05
-8.13324e-06
8.72933e-05
-8.23222e-05
1.15577e-05
3.31807e-05
8.87691e-05
-7.05998e-05
-3.1811e-05
5.65359e-06
1.04991e-05
7.98535e-05
4.14203e-05
7.20925e-05
0.000102554
7.46852e-05
2.4884e-05
0.000198125
8.16121e-05
-6.56993e-05
6.24198e-05
0.000201229
4.75222e-05
8.32758e-05
7.86668e-05
-1.63091e-05
5.95986e-05
0.000149169
4.39011e-05
3.83353e-05
-1.00755e-05
6.97712e-05
-5.98881e-05
5.34233e-05
6.86805e-05
8.57905e-05
6.81028e-05
0.000137439
0.000106096
-2.40523e-05
0.000111081
-0.000131281
0.000102691
9.90947e-05
-5.28727e-05
-3.7921e-05
8.69746e-05
0.000114877
0.000176991
3.40518e-05
7.95294e-05
5.67443e-05
-3.6914e-05
-1.51404e-05
8.69031e-05
6.86068e-05
6.2281e-06
4.16543e-05
2.3637e-05
2.60696e-05
0.000121308
-3.55702e-05
-2.0577e-05
2.75009e-05
5.94517e-05
8.98016e-06
1.84994e-05
8.66945e-05
-5.82668e-05
-3.07104e-07
2.659e-05
-1.44094e-05
-2.21959e-05
-3.9547e-05
0.000128655
-4.29619e-06
2.10481e-05
-3.85131e-05
0.000102293
2.14378e-05
2.4053e-05
4.18611e-05
-0.000104899
2.47047e-05
-6.30287e-05
-2.51195e-05
-2.38871e-05
5.1226e-05
-2.60451e-05
-7.57641e-05
4.98926e-05
-6.6046e-05
-4.29004e-05
2.33413e-05
-5.99087e-05
-8.02728e-05
3.00223e-06
-4.24261e-05
4.66197e-06
1.08914e-05
-2.1575e-05
-4.0608e-06
-5.82072e-05
-6.74943e-05
-0.000106139
-1.79203e-05
-2.00456e-05
-5.72714e-05
-2.52762e-05
7.72986e-06
-3.07409e-05
-8.53867e-05
-3.5389e-05
-8.36165e-06
2.74417e-05
-7.95682e-05
-6.67484e-05
2.31336e-05
-0.000103178
-3.37886e-05
1.98341e-05
-8.20333e-05
-5.15865e-05
-4.38411e-05
8.67236e-06
3.55997e-05
-2.47122e-05
4.87408e-06
-0.000112385
-3.15171e-05
3.88797e-05
-3.39414e-05
-6.56133e-05
-4.11933e-05
-3.17377e-05
2.98229e-05
-2.85321e-05
-3.54567e-05
-2.34862e-05
-0.000116111
1.48102e-05
-3.37933e-05
4.56308e-05
-5.12686e-05
-5.72854e-05
-3.73456e-05
-3.01477e-05
-6.05665e-05
-1.00285e-05
-7.96345e-05
-0.000109192
1.21042e-05
-4.39818e-05
9.01741e-06
-1.84353e-05
1.72418e-05
-5.13537e-05
-1.04335e-05
4.76093e-05
-2.54938e-05
5.74085e-05
2.16067e-07
-3.24127e-05
-5.04442e-05
-8.22558e-05
2.84826e-05
2.44661e-05
-6.16948e-05
-0.000158637
-4.1698e-05
-6.54254e-08
-1.6914e-05
8.77352e-06
5.33129e-05
3.1559e-06
-1.0794e-05
2.47144e-05
-5.96547e-06
3.4323e-05
-2.73115e-05
-6.84697e-06
-1.89547e-06
-4.3644e-05
-0.000106617
-3.96515e-05
-2.96773e-05
-3.55598e-05
1.6422e-05
-5.91242e-05
-4.27188e-05
-1.06683e-06
-5.99935e-06
5.43521e-05
-3.54239e-05
-7.13798e-05
-7.13185e-05
4.017e-05
1.1547e-05
-5.23517e-05
-1.11545e-05
9.64548e-06
3.18985e-05
-8.5775e-05
1.39617e-05
-6.13794e-05
-7.74139e-06
-3.4863e-05
-1.67098e-05
-4.55657e-05
-6.9603e-05
1.70249e-05
-4.88099e-05
-2.07968e-05
1.5981e-05
-1.05534e-05
-2.35446e-05
-1.24408e-05
-3.31042e-05
-4.60122e-05
-1.33581e-05
-4.22456e-05
-8.32323e-06
-5.94473e-05
-7.82576e-05
8.69774e-06
-2.01957e-06
-8.38249e-05
1.05492e-05
-3.22356e-05
-4.36761e-05
-0.000117681
-8.72568e-06
-3.99582e-05
-3.83077e-05
-7.16745e-05
9.3705e-06
3.00054e-05
-1.70408e-05
-2.39993e-05
-1.85613e-06
-5.11226e-05
-2.02557e-05
-8.13485e-05
-6.40946e-05
3.6243e-05
-8.02713e-05
-7.56327e-06
2.37459e-05
2.21167e-05
-5.27813e-05
-2.42516e-06
3.60708e-05
-9.46561e-05
1.02374e-05
-2.21481e-05
3.97031e-05
-4.1351e-05
-2.55479e-05
-5.70121e-06
3.04063e-05
-6.90698e-05
-4.77675e-05
3.67505e-05
-4.79689e-06
2.05904e-06
-4.86568e-05
-0.000107547
-6.60247e-05
-2.66006e-05
-2.24797e-05
-9.32999e-06
-1.88573e-05
-0.000101449
6.32275e-06
3.69591e-05
4.60993e-06
-1.08493e-05
-2.36548e-05
-8.50842e-05
-3.90911e-05
4.81101e-05
-6.97747e-06
-7.51889e-05
-6.46277e-05
-4.37901e-05
3.07562e-05
-5.53509e-05
1.83063e-06
-5.12169e-05
9.71672e-05
1.17979e-05
-4.14071e-05
-5.22415e-05
-4.83998e-05
-4.73997e-05
3.21253e-05
-3.50828e-05
-7.29871e-05
1.6978e-06
-2.53881e-05
-1.98884e-05
4.50586e-06
-1.73196e-05
7.05675e-05
5.70884e-05
-6.70664e-05
-3.48979e-05
-2.73386e-05
-7.02044e-05
-2.06066e-05
2.42681e-05
8.58865e-05
-8.70349e-05
6.93486e-06
-4.34536e-05
-3.62701e-05
6.90323e-05
3.75879e-05
-6.27579e-05
-4.99212e-06
2.5542e-05
-5.1121e-05
2.26243e-05
-1.34824e-05
-4.80209e-05
-1.98239e-05
3.05509e-06
3.73246e-05
3.4268e-05
-1.23486e-05
-2.31673e-05
-0.000132198
-1.6694e-07
-7.60634e-06
5.12584e-05
-7.35291e-06
-7.36322e-05
5.01715e-06
-3.30426e-05
-1.99105e-06
5.00253e-05
-7.79715e-06
-2.33898e-05
-8.48027e-06
1.05402e-06
-1.92294e-05
7.13239e-05
-5.15231e-05
7.82253e-06
3.1163e-05
6.53433e-05
-4.67902e-05
-2.90641e-05
-1.14909e-05
-2.49572e-05
-9.34277e-05
-2.04819e-05
3.51586e-05
4.88632e-05
3.64081e-05
-1.64525e-05
3.77693e-05
6.14581e-05
-4.75247e-05
4.48453e-05
4.40085e-05
9.82278e-06
-5.10868e-05
1.23073e-05
2.34444e-05
7.04308e-05
4.96686e-05
-3.57145e-05
2.25286e-05
5.27338e-06
-2.51165e-05
4.80087e-05
3.40395e-05
2.11624e-05
-2.89193e-05
-7.34262e-05
2.16747e-05
3.48731e-05
1.42108e-06
-4.63352e-05
1.81701e-06
-1.65715e-05
5.22441e-05
1.92714e-05
-4.25102e-05
-9.05941e-05
6.88457e-06
2.94282e-05
9.4329e-06
3.90757e-05
-4.01767e-05
2.79769e-05
-3.30706e-05
9.02754e-05
1.87056e-05
2.19357e-05
-2.38944e-05
3.89218e-05
7.95065e-05
-1.43016e-06
-1.07867e-05
-4.31229e-05
-5.63419e-05
3.6556e-05
5.69166e-06
-2.97659e-05
3.18501e-05
-3.75104e-05
-1.97683e-05
6.36957e-05
5.06415e-05
-4.80586e-05
-4.18769e-05
-9.31288e-06
-2.63558e-05
-1.33659e-05
5.09446e-05
7.41067e-05
-1.38814e-05
-5.52129e-05
-6.02389e-05
2.25469e-05
4.01649e-05
-3.56471e-05
4.60858e-05
6.04023e-05
1.00423e-05
-2.72857e-05
-6.84019e-05
1.03842e-05
-3.90663e-05
-6.67312e-05
1.89329e-05
-3.8665e-05
-7.26085e-05
1.55339e-05
3.4466e-05
-9.18191e-06
-2.52386e-05
3.49991e-05
6.71941e-05
-7.81403e-06
-2.34848e-05
1.9087e-05
-3.45566e-05
-3.24636e-06
3.17623e-05
-4.33621e-05
-4.44568e-05
-1.29167e-05
6.1907e-05
-1.54724e-05
-1.92425e-05
-9.33418e-07
1.07805e-05
-2.67868e-05
6.43285e-05
6.28293e-07
3.16112e-05
-3.4544e-05
-2.02104e-05
3.29813e-05
-8.92952e-06
-5.33776e-05
-6.58386e-05
-1.97738e-05
2.38314e-06
3.65475e-05
8.36747e-06
-1.87743e-06
1.48291e-05
-2.75737e-05
4.24774e-05
2.79524e-05
9.69113e-05
6.6583e-05
1.94266e-05
1.45668e-05
-1.36637e-05
5.9017e-05
5.77695e-05
-3.53303e-05
8.65558e-05
-1.88485e-05
-2.10223e-05
-5.39366e-05
1.12341e-05
-1.22986e-05
7.03165e-05
-1.07866e-05
6.14859e-06
5.77936e-05
3.4752e-05
-3.56392e-05
-5.85557e-06
4.38268e-05
2.99951e-05
1.48882e-05
3.09409e-06
-6.29968e-05
1.44138e-05
-9.34463e-05
4.10876e-05
-3.34159e-05
-7.29718e-05
6.7862e-06
-4.31372e-05
3.26065e-05
-5.40692e-05
-3.51892e-05
-7.38108e-06
-3.46785e-05
7.78143e-06
5.28592e-05
1.66988e-05
-1.61468e-06
7.61887e-05
-2.89606e-06
5.27899e-05
3.30994e-05
2.69057e-05
3.20119e-05
-4.14015e-05
-7.91212e-05
6.70401e-06
-3.7106e-05
3.38303e-07
3.12875e-05
2.55894e-05
4.6243e-05
-7.34453e-06
3.85572e-05
-1.82486e-05
8.60395e-05
-3.51759e-05
-2.42109e-05
-2.4479e-05
3.96883e-05
3.96362e-05
-5.5962e-06
-1.59823e-05
5.26488e-05
-3.12827e-05
-9.51276e-06
1.32087e-05
3.03079e-05
4.01447e-05
-6.21303e-05
6.55768e-06
-4.02806e-05
7.68162e-05
-2.30571e-05
2.42726e-06
-2.36239e-05
-7.65722e-06
1.05542e-06
-7.58462e-05
1.89054e-05
4.24928e-05
2.73273e-06
-4.68801e-05
-0.000111356
2.32974e-05
1.92825e-05
1.6694e-06
4.1142e-05
-1.26259e-05
3.11492e-06
-2.15395e-05
-7.41896e-05
3.57797e-05
1.81666e-05
-4.43212e-05
1.38062e-05
2.49417e-05
-1.40067e-05
-5.45264e-05
-1.59672e-05
4.84828e-05
-4.49899e-06
-0.000139603
5.79741e-05
3.08058e-05
0.000100899
-3.72753e-05
3.82722e-05
1.96726e-05
-2.1946e-05
-3.17001e-05
-3.15022e-05
5.79789e-05
8.84748e-05
-9.06736e-06
-5.99883e-05
9.21893e-06
8.46409e-06
-1.88593e-08
-2.07848e-05
-3.9037e-05
0.000130274
-3.43214e-05
-4.70513e-05
5.37115e-05
-2.79688e-06
2.82272e-06
-3.79188e-05
-6.0541e-05
4.75423e-05
4.8436e-05
-1.75373e-05
3.74633e-05
-5.19103e-05
4.18179e-05
3.395e-05
-6.99726e-05
2.7366e-05
3.88059e-05
1.6781e-05
-5.26784e-05
6.28696e-05
-2.19623e-05
-4.31013e-05
-7.40308e-06
-2.66794e-05
4.25468e-05
3.64985e-06
2.75732e-05
-4.73879e-05
-6.43707e-06
3.03094e-05
-2.263e-05
-8.19347e-05
-4.95822e-05
1.36236e-05
3.36369e-05
4.53524e-05
-3.78173e-05
6.72048e-05
-2.02055e-05
-6.23042e-05
4.74697e-05
4.6276e-05
1.24058e-05
3.8288e-05
2.15038e-05
5.87145e-05
-6.50004e-05
-4.25664e-05
-1.34122e-05
4.39058e-05
4.78697e-05
-2.23207e-05
-6.05176e-05
1.9829e-06
-2.43762e-06
-3.00119e-05
1.48922e-05
2.92044e-05
7.28867e-05
7.06636e-05
-3.58254e-05
-0.000140627
2.58461e-05
1.20327e-06
-2.88252e-05
-4.697e-05
5.72427e-05
3.12582e-05
1.75566e-05
-0.000107817
-1.58476e-05
1.13321e-05
3.99521e-05
3.28138e-05
-4.30103e-05
3.20358e-05
3.74881e-05
-3.91934e-05
2.83308e-05
3.71941e-05
-1.37142e-05
3.56364e-05
-5.44158e-05
8.3045e-05
3.03241e-05
-1.9427e-05
-2.67297e-05
6.84273e-05
4.12178e-05
-2.91597e-05
3.35348e-05
3.92143e-05
3.68371e-05
-3.48371e-05
-2.81517e-05
1.41669e-05
3.52944e-05
-7.15667e-05
-2.16155e-05
4.60051e-05
3.64995e-05
2.31862e-05
-3.12359e-05
-7.13491e-05
2.2548e-05
-3.5272e-05
7.69857e-05
-4.16434e-05
-1.37857e-05
7.45141e-05
-5.40671e-05
4.00376e-06
-1.77845e-05
-5.58051e-05
2.01229e-05
5.95977e-06
5.05819e-05
6.31162e-05
-6.58254e-05
8.14183e-05
-4.32236e-05
-2.4433e-05
2.67203e-05
4.39468e-06
9.56771e-06
7.65547e-06
4.39095e-06
-4.22163e-05
2.17028e-05
1.01277e-05
-1.56354e-05
-7.88147e-05
-2.7972e-05
-7.33184e-06
2.62826e-05
6.22822e-06
2.38394e-05
-8.04081e-06
5.26159e-05
3.0096e-05
-3.07958e-05
-8.68584e-05
1.14746e-05
3.87334e-05
1.11607e-05
-2.85618e-05
-9.12452e-06
-2.48174e-06
2.21187e-05
-3.22983e-06
2.53442e-05
2.25466e-05
3.20966e-05
-2.08742e-05
-3.063e-06
6.05523e-06
-3.41388e-06
3.49663e-05
-2.44866e-05
5.34735e-05
1.96627e-05
1.27885e-05
-1.15688e-05
2.92531e-05
2.8708e-06
3.3959e-05
-1.8717e-05
-2.88617e-06
-6.90413e-05
2.46684e-05
-5.0388e-06
-1.26834e-05
2.05978e-05
-2.63399e-05
-2.6616e-06
-3.02468e-05
-7.38937e-05
-1.16543e-05
0.000124286
-9.6718e-05
2.30565e-05
4.08883e-05
1.12082e-05
1.89694e-05
2.29746e-05
-6.50403e-05
-1.85568e-05
-3.58936e-05
9.88785e-06
-2.25081e-05
-0.00011462
5.06439e-05
-0.000120174
-5.21548e-05
0.000129995
-2.85544e-05
-3.29317e-05
1.39811e-05
-3.0878e-06
-4.58409e-06
-6.87173e-05
5.01284e-07
2.54064e-05
-3.06813e-05
-4.83696e-05
-2.09834e-05
3.77462e-05
3.99078e-05
1.09902e-05
-3.37757e-05
2.43065e-05
4.91925e-05
4.58612e-05
-7.13922e-05
-6.57423e-05
-4.48681e-05
5.14663e-05
2.45089e-06
-1.54704e-06
-6.96707e-05
3.42028e-07
-1.04239e-05
6.89388e-06
-2.29038e-05
-2.35531e-06
-3.06225e-05
3.27415e-05
-3.22668e-06
-1.03376e-05
-2.52567e-05
2.8462e-05
9.52232e-05
-3.0262e-05
3.21716e-05
4.43812e-05
-4.54083e-05
-0.000101101
-3.30767e-05
0.00011101
6.25438e-05
-5.28283e-05
-0.000107186
-1.18128e-05
6.8567e-05
3.46117e-05
-5.4047e-05
-5.21379e-05
4.75177e-05
-4.06372e-05
-0.000119436
6.1203e-05
-1.81563e-05
-3.1173e-05
0.000105493
-4.54737e-05
-9.29442e-05
-5.38456e-05
9.50554e-06
-5.54989e-05
1.67231e-05
4.28164e-06
-7.23697e-05
6.5238e-06
4.5925e-05
6.77782e-06
-2.06695e-06
5.32222e-05
2.83384e-05
-3.75985e-05
-4.85512e-05
0.000104193
-1.62809e-05
-5.72717e-06
-2.96996e-05
-2.67255e-06
-4.58118e-05
8.22777e-06
-1.31114e-05
-4.38886e-05
-3.36708e-05
-5.49546e-05
4.80604e-05
-3.43903e-05
5.50933e-05
-3.26773e-05
-2.49939e-05
-9.60962e-06
3.26961e-05
-4.34382e-05
8.21744e-05
3.99048e-06
1.01072e-05
-2.64161e-05
-1.68453e-06
5.18318e-05
-5.05241e-05
7.65339e-05
-2.69973e-05
-2.84483e-05
5.25371e-06
1.91289e-05
5.75267e-05
-1.5507e-05
1.41475e-05
1.54795e-05
9.67545e-05
-2.60591e-05
2.79746e-06
-6.86486e-05
-4.36418e-06
5.35604e-06
-6.22706e-07
-1.1227e-05
2.76117e-05
-7.0645e-05
2.38864e-05
3.64641e-05
-5.8607e-06
-1.47322e-05
5.85361e-05
-1.46369e-06
5.05475e-07
-8.36351e-06
-6.68821e-05
-7.45873e-06
-5.66774e-05
5.49136e-05
-1.55685e-05
-6.51166e-05
1.93969e-05
-2.50089e-05
1.49547e-05
4.44496e-05
-8.8783e-06
-5.64915e-05
-7.07046e-05
-8.34151e-06
-2.96298e-05
-2.15229e-06
-1.83216e-05
-1.89303e-06
-0.000102778
8.74803e-06
3.24823e-05
3.07965e-05
-0.000103662
-3.6156e-05
2.02423e-05
8.39115e-05
4.75254e-06
-1.31456e-05
3.19694e-05
7.14674e-07
-3.71365e-05
-7.51376e-05
-6.92118e-05
-2.21282e-06
-7.09704e-05
1.36695e-06
-4.37519e-05
5.2101e-05
-3.20335e-05
-2.11225e-05
9.38261e-06
-1.06089e-06
4.85114e-06
-2.59295e-05
5.72978e-05
-2.03844e-05
4.02208e-05
1.71226e-05
-4.36115e-05
4.79096e-06
-4.09901e-05
-3.4913e-07
2.30942e-05
-3.31622e-05
1.34478e-05
1.23587e-05
-2.6104e-05
-4.63809e-05
1.17685e-05
-4.40204e-05
0.000100773
4.16171e-05
5.95758e-05
5.72728e-06
3.636e-06
3.72173e-05
-2.83871e-05
-2.65324e-05
-3.87033e-05
-3.32441e-05
-2.94519e-06
-4.83391e-06
-7.4239e-05
-9.21182e-05
-4.12931e-05
9.36043e-05
1.79685e-05
2.46142e-05
5.07901e-05
-3.9092e-05
-4.86935e-05
-6.07772e-05
2.91872e-05
-7.01523e-05
2.39772e-05
5.71004e-05
1.4381e-05
-8.54451e-05
6.48923e-05
5.64172e-06
1.15009e-05
-0.000120717
5.33741e-05
7.36078e-05
5.39166e-06
1.38739e-05
1.18408e-05
-9.65106e-06
3.6695e-05
-3.0343e-05
4.71822e-05
6.17245e-05
-4.68013e-06
-4.04326e-05
-2.98403e-05
4.83403e-06
-1.19186e-06
4.36946e-05
-1.84961e-06
-1.13773e-05
-1.70611e-05
7.82476e-05
-4.58339e-06
1.7914e-05
-3.62857e-05
-7.78635e-05
7.3835e-05
-9.19309e-05
-5.20796e-06
2.09289e-05
2.30572e-06
7.0589e-05
3.83813e-05
7.42124e-06
5.50145e-05
-1.01445e-05
4.60943e-05
-1.6838e-05
-5.8875e-05
-4.91895e-05
5.14213e-05
5.45881e-05
-1.98532e-05
5.81008e-05
3.02005e-05
1.38801e-05
2.24964e-05
6.25564e-05
6.90145e-06
-8.80087e-05
-1.3425e-05
-5.00784e-06
4.87001e-05
5.9925e-05
6.30916e-05
1.42679e-06
2.14423e-05
-2.66378e-05
-9.9038e-06
-6.22044e-05
-1.60281e-05
3.25948e-05
-3.85356e-05
-1.90412e-05
5.31533e-05
-2.28164e-05
1.54095e-05
-4.23559e-05
-5.64614e-07
-5.11482e-05
-1.07909e-05
-0.000114607
2.06352e-05
1.917e-05
7.28541e-05
2.73266e-05
-4.94904e-05
5.05783e-05
5.27874e-05
6.4199e-05
-7.99063e-06
4.43972e-05
-4.86512e-05
-2.58867e-05
-3.12885e-05
9.76647e-05
-4.46024e-05
-4.87095e-05
2.70447e-05
-5.04588e-05
1.36552e-05
-9.01836e-05
-0.000131355
6.04801e-05
5.67492e-05
-1.70092e-05
2.47727e-05
-9.10857e-06
5.167e-05
-8.06587e-05
3.82913e-05
3.78336e-05
1.5907e-05
-7.97631e-06
-6.65593e-06
3.57418e-05
3.13777e-05
-9.32615e-05
-4.72959e-05
-9.38076e-05
-4.97693e-05
6.84742e-05
-3.54392e-05
9.14547e-06
-3.66223e-05
3.87211e-05
1.69344e-05
4.47611e-05
-5.40494e-05
2.94938e-05
6.61315e-05
1.22408e-05
-6.64291e-05
1.1333e-06
1.48163e-05
-1.36936e-05
6.08946e-05
-9.08971e-07
7.89305e-05
9.09693e-06
5.26162e-05
-9.66364e-05
3.41132e-05
6.60529e-06
-1.27819e-05
-4.43454e-05
-2.06705e-05
3.1509e-06
-9.30158e-07
-6.30614e-05
-0.000100799
-4.15874e-05
-9.15083e-05
-4.81867e-05
5.62919e-05
-1.52453e-05
-5.22907e-05
-2.41197e-05
-1.08293e-05
-4.57694e-05
-4.23089e-05
1.19054e-05
2.83605e-05
-1.41365e-05
-5.28242e-05
-6.13481e-05
1.77323e-05
1.07329e-05
-2.08279e-05
5.96301e-05
1.79058e-06
2.51202e-05
-2.36356e-05
5.88675e-05
3.18957e-05
4.76104e-05
-7.31896e-05
7.2247e-05
-0.000100921
-6.24079e-06
6.49311e-05
8.48947e-06
3.2307e-05
-3.30689e-06
-4.32204e-05
2.37837e-06
1.99967e-05
-1.27294e-05
9.59379e-06
3.61399e-05
2.75428e-05
6.92138e-05
-2.724e-06
-6.3224e-05
-6.14487e-06
-7.61065e-06
-1.02114e-05
4.45035e-05
5.2012e-06
2.67306e-05
-6.62939e-06
-4.79864e-06
-2.94807e-05
1.43559e-05
5.68933e-06
6.79197e-05
9.01183e-06
3.43905e-05
1.84252e-05
1.29041e-05
-4.46517e-05
3.4593e-05
3.36542e-05
1.93832e-06
-1.88092e-05
4.46872e-05
-5.23891e-05
6.75365e-05
7.74649e-05
6.37176e-06
8.13842e-05
-3.18103e-05
2.20671e-05
-1.73564e-05
-2.87808e-05
-6.86578e-05
1.19233e-05
2.47915e-05
1.23705e-05
-3.48676e-05
2.16783e-05
-2.20751e-05
-3.52506e-06
1.23346e-05
1.70921e-06
2.97127e-05
-6.88566e-05
-1.33737e-05
9.18963e-05
-3.43514e-05
1.47282e-05
-1.23633e-05
4.9457e-05
2.42074e-05
-4.44686e-05
5.05934e-05
0.000106778
9.66932e-05
6.52508e-05
8.89995e-07
-7.20588e-06
-1.14562e-05
6.66901e-05
-5.448e-06
4.01796e-05
-2.33977e-05
4.1756e-05
-3.41279e-05
-2.1398e-05
6.28131e-06
-2.62641e-05
3.58212e-05
-8.93144e-05
4.69465e-05
-3.57553e-05
3.30249e-05
2.34642e-05
-9.97121e-05
2.21339e-05
3.57021e-05
-1.87467e-05
2.13257e-05
-6.78236e-05
2.71613e-05
-5.16976e-05
5.68145e-05
4.88436e-05
-1.74808e-05
3.80416e-05
4.54159e-05
1.1788e-05
-8.37969e-06
2.07493e-05
-2.05645e-05
5.28254e-05
-7.57065e-05
-4.2627e-05
-7.67305e-06
2.04989e-05
-1.54359e-05
-3.12334e-05
1.17397e-05
6.21657e-05
4.88081e-05
4.33601e-06
-0.000127571
-5.02241e-05
-6.86676e-05
-6.60992e-05
3.09136e-05
7.61504e-05
-7.01356e-05
-7.02962e-06
9.28505e-06
4.82402e-05
3.83961e-06
8.47317e-06
-6.75763e-05
-1.8583e-05
1.21739e-05
-8.66782e-06
-3.19531e-05
-1.42837e-05
3.18396e-06
7.33009e-06
1.82411e-05
2.56517e-05
-6.78839e-05
-4.7147e-06
3.49287e-05
-5.05331e-05
1.07937e-05
-1.5015e-05
-1.63049e-05
-2.95395e-05
9.53891e-05
2.63911e-05
-1.76688e-05
-2.15019e-05
-1.27993e-05
8.03336e-06
-1.35811e-05
2.63905e-05
-7.18539e-06
-1.90844e-05
2.17275e-05
5.39323e-05
-9.03427e-05
5.79039e-05
-1.44774e-05
-1.46052e-05
-3.83228e-05
-4.54383e-05
2.6162e-05
5.74822e-05
2.07156e-05
1.80588e-05
2.61941e-05
-7.22159e-06
-2.65972e-05
2.3871e-05
-3.81795e-05
-3.29996e-05
2.8661e-05
4.19584e-06
5.3414e-05
-1.29023e-05
-4.54625e-06
9.10497e-05
1.63319e-05
1.69139e-05
-4.63274e-05
3.55742e-05
-3.91714e-05
2.29457e-05
1.72229e-05
3.08559e-06
6.8058e-05
6.72806e-05
-1.70238e-05
-7.54767e-06
4.55868e-05
-1.23878e-05
-6.61239e-06
0.000122597
3.2628e-05
1.82127e-05
2.49492e-05
-5.22536e-05
-2.22394e-05
-5.70172e-05
1.30467e-06
7.69063e-06
2.41783e-05
1.07714e-05
-5.20681e-05
1.76704e-05
6.44929e-05
-6.11881e-05
5.44072e-05
-4.49326e-05
-7.05202e-05
6.23055e-06
3.27916e-05
4.70877e-05
1.32737e-06
1.32953e-05
-7.786e-05
-2.81832e-05
-6.89295e-06
0.000112601
3.68475e-05
-3.3426e-05
4.85629e-05
3.18345e-05
1.1489e-05
6.94901e-05
0.000133271
-7.38588e-05
-4.20369e-05
-1.68962e-05
2.04111e-05
8.13231e-06
-1.95543e-05
3.47556e-05
5.05913e-05
-6.30398e-05
-4.2269e-05
1.79627e-05
5.70347e-05
-6.66943e-07
2.83975e-05
-3.47804e-05
-8.2316e-05
-3.16933e-05
-5.51022e-05
-1.69483e-05
6.43998e-05
-5.57767e-05
5.25205e-05
-0.00011234
-7.10653e-05
-1.52239e-05
-1.60274e-05
-3.59298e-05
5.28326e-05
4.40272e-05
-4.75487e-06
-6.0578e-05
-2.0325e-05
1.72121e-05
2.40902e-05
-2.15002e-05
-3.80278e-05
1.84209e-05
-5.2297e-05
-1.48043e-05
-9.04265e-05
-1.86143e-05
-1.40986e-05
0.000121308
-2.54698e-05
5.25205e-05
3.7947e-05
3.11935e-05
-3.85314e-05
-5.10283e-06
-4.49662e-05
2.62953e-05
1.12427e-05
-1.8605e-05
1.7443e-05
-3.76215e-05
8.71113e-06
-3.1795e-05
7.14653e-05
-7.47016e-05
0.000101809
5.19648e-05
3.18056e-05
1.9416e-05
4.63658e-05
-3.00468e-06
1.62402e-05
7.99991e-05
3.67605e-06
-1.37989e-05
-5.21087e-05
-5.62189e-05
2.6822e-05
-3.78023e-05
-4.78232e-05
2.88633e-05
-2.68993e-05
-1.16546e-05
-5.02804e-05
3.10766e-05
-2.00593e-05
3.81088e-05
-8.71746e-05
-4.69048e-05
1.67191e-05
4.92437e-05
9.12824e-06
1.4262e-06
-6.69424e-05
-7.27304e-05
-1.43618e-05
-9.74454e-06
-1.5698e-05
2.6738e-05
-9.21224e-05
-5.88649e-05
-1.25881e-05
5.10601e-05
-8.97486e-05
7.86013e-05
1.30895e-05
1.51682e-05
-0.000114672
-4.19711e-05
1.06484e-05
8.84155e-05
-6.75302e-06
-6.9309e-06
1.08079e-05
-9.15197e-05
-1.49582e-05
1.07791e-05
5.18087e-05
-3.28287e-05
4.25938e-05
9.43081e-06
7.85454e-07
4.03612e-05
-3.83507e-06
2.66726e-05
-2.21876e-05
6.10948e-07
2.16463e-06
1.83089e-05
-2.0163e-05
-7.52344e-05
-8.20155e-05
-4.08834e-05
3.06885e-05
3.11449e-05
-1.76036e-05
-1.14895e-05
3.87504e-05
9.27423e-06
1.17534e-05
-4.44874e-05
-5.2748e-05
-4.26525e-05
9.60724e-05
-3.91066e-05
-6.17562e-05
-4.51251e-05
4.72029e-06
-4.15777e-05
-1.74763e-06
2.57662e-05
4.81142e-05
-3.50768e-05
2.89147e-05
3.42636e-05
2.19491e-05
-2.03152e-05
-2.84291e-05
2.95846e-05
6.23252e-05
1.81497e-05
-1.77094e-05
-4.22896e-05
-3.51761e-06
6.32226e-05
3.54648e-06
7.63184e-06
-5.2934e-06
1.01697e-05
2.74982e-05
2.9136e-05
-2.60754e-05
-5.974e-05
8.67879e-05
3.29316e-05
-1.45726e-05
-1.42369e-05
5.72903e-05
3.84275e-06
9.81891e-05
0.000121367
-2.85944e-05
2.49977e-05
7.87177e-06
-1.86714e-05
-1.7015e-05
-7.32373e-05
0.000112081
-1.25975e-05
-6.01783e-05
7.86246e-06
3.08846e-05
9.78354e-06
7.84139e-06
1.71362e-05
4.84288e-08
-2.67221e-05
-2.5681e-05
-4.13372e-05
-4.55834e-05
-1.76241e-05
-7.7656e-06
-4.82688e-05
7.13976e-05
1.64243e-05
3.0174e-05
-3.1959e-05
1.39842e-05
-1.39403e-05
-1.55889e-05
4.47663e-06
-1.65858e-05
8.27662e-05
5.56019e-05
5.67315e-06
3.54114e-05
2.86219e-06
-1.63059e-05
2.07489e-05
9.63255e-06
-1.45009e-05
-4.88879e-05
-4.07485e-05
-9.69181e-06
4.12577e-05
-2.158e-05
-3.41522e-05
5.64961e-05
-1.37313e-05
-5.04199e-05
3.84744e-05
-2.33626e-05
-1.19617e-06
-5.9447e-05
5.95255e-06
6.40072e-05
-7.39722e-05
-2.23716e-05
-4.28862e-06
-7.43167e-05
-1.58092e-05
5.60059e-05
-2.41022e-05
5.20142e-05
4.58732e-05
-3.16427e-05
0.000122278
2.89961e-05
1.20706e-05
-2.74092e-05
-3.44679e-05
-3.20199e-05
5.98461e-05
4.27908e-05
-2.5427e-05
-1.62863e-05
4.25264e-05
4.55981e-05
-7.08052e-05
-4.53842e-05
-1.75915e-05
6.00135e-05
3.7081e-05
4.36974e-05
-7.64546e-06
2.17551e-05
1.48435e-05
1.47815e-05
3.49527e-05
1.44985e-05
-7.17347e-05
5.90796e-05
3.93535e-05
-1.62123e-05
4.74527e-05
-1.84559e-05
-3.84233e-05
8.46091e-05
5.78981e-05
5.29934e-05
-2.82947e-05
-1.40262e-05
-3.3821e-06
6.56868e-05
1.70164e-05
1.81661e-05
-1.45186e-05
-3.22156e-05
8.30123e-06
5.70648e-05
3.72088e-05
6.8962e-05
3.92867e-05
3.0786e-05
-1.59345e-05
4.17498e-05
8.47317e-06
-3.21823e-05
-1.07551e-05
-1.45925e-05
5.3932e-05
1.21889e-05
2.1124e-05
-2.64749e-05
1.1299e-05
-2.39074e-05
-1.44511e-05
1.09985e-05
-7.73463e-06
4.69014e-06
1.68594e-05
6.67052e-05
1.5799e-05
-0.000107579
-8.24992e-05
6.5231e-06
-5.85073e-05
5.17322e-05
1.84864e-05
1.66778e-05
-7.07684e-05
5.68526e-06
-1.86225e-05
-4.3344e-05
5.83278e-05
-4.15355e-05
-7.7674e-05
-1.33208e-05
-3.74748e-05
-1.10001e-06
5.06307e-05
3.43453e-05
5.21399e-05
2.95315e-05
4.71442e-05
-2.02375e-05
0.000134812
5.51662e-05
-3.82712e-05
-1.12216e-05
0.000111733
1.12853e-06
-1.38336e-05
-2.07325e-05
-1.05337e-05
5.7515e-06
2.51086e-05
-6.47183e-05
1.22283e-06
0.00011825
2.02321e-05
-6.96789e-05
-8.34586e-05
9.06892e-05
4.29546e-05
-6.09937e-05
-2.33599e-06
4.52437e-06
-2.48615e-05
-7.49838e-05
-6.30086e-06
3.39788e-05
6.28859e-05
-2.65846e-06
-2.97541e-05
-6.67733e-05
-1.08313e-05
7.42334e-06
3.03184e-05
-1.26916e-05
1.26483e-05
-3.24749e-05
-1.54035e-05
4.65957e-05
-6.0664e-07
-7.33231e-05
-3.61179e-05
3.19349e-05
5.07124e-05
5.52048e-05
-3.86601e-05
-2.71014e-05
-1.73191e-06
4.00436e-05
-1.28828e-05
1.15241e-05
2.75387e-05
1.51002e-05
2.02361e-05
3.27817e-05
-0.000103584
-2.37206e-05
5.62993e-05
-3.56046e-05
-8.56414e-05
0.000101617
-2.90703e-05
2.15791e-05
-5.19509e-05
6.29353e-06
-5.9559e-05
3.80154e-06
-4.01159e-05
2.21787e-05
-9.73768e-06
6.35823e-05
-2.76123e-05
-2.54391e-05
9.06724e-05
-5.55888e-05
-3.51444e-05
1.47809e-05
-2.3094e-05
3.46854e-05
-4.10143e-05
-1.09317e-05
2.9841e-05
3.45646e-05
-4.78459e-05
-5.78745e-05
-3.72987e-05
3.5862e-05
-1.02359e-05
-1.76751e-05
3.83471e-05
4.55056e-06
-3.07254e-05
-6.31748e-05
6.19167e-06
-5.68884e-05
0.000120349
-0.000117729
-6.80871e-05
1.0187e-05
-1.02159e-05
2.82164e-05
-1.9602e-05
-6.25581e-06
3.50743e-05
9.93162e-06
-5.96485e-05
5.40575e-05
-2.97576e-05
-7.2585e-07
-9.39053e-06
-2.64803e-05
5.89009e-05
9.35841e-05
7.9501e-05
-1.68921e-05
-6.82928e-05
-7.77037e-05
4.75629e-05
-1.31794e-06
1.17446e-05
5.16309e-05
-6.31507e-05
2.21429e-05
3.45726e-05
-3.89626e-05
4.92728e-05
9.85304e-06
-2.73691e-05
-7.1801e-05
-2.20735e-06
9.41218e-06
5.68602e-05
-2.01403e-05
-8.62242e-06
7.08981e-06
9.574e-07
-2.91984e-05
-3.67719e-05
9.87202e-07
-7.08317e-06
-7.77069e-05
4.07125e-05
2.28039e-05
-2.33534e-05
-2.82729e-05
6.35581e-06
-3.1061e-05
-2.3779e-05
5.87658e-05
3.77758e-05
-8.88547e-05
1.88746e-05
2.82153e-05
2.42065e-05
-1.97266e-05
3.13714e-05
2.6773e-05
-2.78912e-05
-1.14413e-05
4.39795e-05
-1.84719e-05
6.28934e-06
-9.4159e-06
3.67076e-05
-1.65381e-05
-2.21904e-05
-3.26344e-05
2.11542e-05
-9.05292e-05
-2.25268e-05
7.17782e-06
-1.67807e-05
-5.12949e-05
-4.15263e-05
3.02579e-05
1.8758e-05
1.34518e-05
6.7997e-05
0.000103677
-2.68692e-05
-5.62216e-05
-7.36851e-06
-8.72894e-06
-8.22102e-06
-0.000119192
3.07655e-05
9.97076e-05
7.93556e-05
2.3524e-05
2.89513e-06
3.23568e-05
6.61938e-06
-1.27401e-05
-1.12371e-05
3.50212e-06
6.08941e-05
-6.73474e-06
5.99326e-05
-9.10833e-06
-4.93443e-05
-1.25014e-05
-1.7921e-05
3.41781e-05
-3.37977e-05
7.39563e-06
5.94535e-05
0.000102923
1.58965e-05
2.07347e-06
6.60843e-05
-5.49525e-05
-6.42199e-05
4.83624e-06
5.86053e-05
-3.53624e-05
-0.000113618
-3.21862e-05
8.25257e-06
3.0373e-05
4.09479e-06
1.2588e-05
-2.57907e-05
4.03007e-06
-1.99425e-05
-0.000115459
-8.30344e-06
2.34322e-05
1.6768e-05
-9.89961e-06
-1.77941e-05
3.41062e-05
5.38375e-05
-8.89646e-07
-3.26858e-05
-1.44826e-05
1.08397e-05
2.86296e-05
1.41959e-05
-1.13214e-05
4.3634e-05
-9.69961e-06
4.36598e-05
-6.26023e-06
-6.49593e-05
8.33401e-05
7.37282e-06
-2.3359e-05
-5.29962e-05
8.2195e-06
-7.67076e-05
-5.47336e-05
1.6999e-05
-2.35284e-05
6.93039e-05
-5.89249e-05
-1.58965e-05
-3.79689e-06
-4.36554e-05
1.74949e-06
6.90855e-06
-1.56345e-05
-1.26812e-05
-6.31344e-06
-2.87474e-05
6.35835e-05
-1.27357e-05
2.98875e-05
-1.94588e-05
0.00010666
-6.87314e-05
2.64286e-06
7.97829e-05
-7.28974e-05
-2.11624e-05
-1.82854e-06
-5.65487e-06
-3.07191e-05
-1.66241e-07
6.13111e-05
-4.5361e-05
-3.93705e-06
2.74233e-05
5.10007e-05
6.30133e-06
2.1523e-05
-5.9315e-05
-4.52385e-05
-4.56921e-05
-4.39743e-05
-2.38917e-05
-5.03429e-05
-2.24273e-05
-6.28913e-05
1.11945e-05
0.000117078
1.08845e-05
1.60374e-06
7.11577e-06
-1.24837e-05
-9.79615e-05
1.17281e-05
-2.43355e-05
-6.52865e-05
-4.57342e-05
9.77496e-05
-2.84514e-05
2.46853e-05
2.89713e-05
-3.3951e-05
9.1926e-05
-5.06382e-05
-3.1399e-05
4.17931e-07
2.26257e-05
5.23939e-05
-4.63504e-05
3.01946e-06
-7.25875e-05
3.62422e-05
4.53801e-05
5.10274e-05
4.96123e-05
1.14613e-05
6.31437e-06
1.38573e-05
1.41445e-06
1.35622e-05
-5.94301e-05
-5.26096e-05
-3.14451e-05
3.68987e-05
-1.13004e-06
4.39386e-06
1.65972e-05
1.011e-05
-4.5673e-05
-5.6707e-05
-2.16055e-05
3.75335e-06
3.02101e-05
2.47172e-05
-3.70552e-05
-4.68162e-05
-8.03268e-05
-3.89207e-05
8.46449e-05
4.35199e-05
1.98977e-05
-8.17562e-06
-6.95733e-06
-5.38761e-05
3.58438e-05
-6.18509e-05
7.90426e-05
-1.59482e-05
-3.99179e-05
-6.26174e-05
3.51219e-05
5.15333e-05
1.97079e-06
-3.47104e-06
-9.94955e-06
5.45721e-05
-4.35939e-05
-3.20033e-05
3.58502e-05
-2.33705e-05
-7.194e-06
3.16272e-05
-2.36785e-05
4.79082e-05
6.11596e-05
-1.50186e-05
5.83354e-05
-1.60111e-05
-5.55501e-05
-4.11182e-05
3.92951e-05
8.73667e-05
-9.01846e-06
2.39067e-05
5.31233e-05
-2.11759e-06
3.75919e-05
-6.11143e-05
-5.37825e-05
4.7565e-05
-2.97436e-05
-7.41602e-05
-1.30138e-05
3.82855e-06
-4.95899e-05
-1.00628e-05
1.48059e-05
3.36766e-06
-4.77552e-05
-3.26612e-05
4.7799e-06
4.40954e-05
4.0431e-05
-4.65774e-05
-4.65788e-05
9.95421e-06
6.58097e-05
1.77755e-05
-1.76016e-05
-0.000102063
4.74709e-05
-2.01671e-05
-7.77631e-06
-8.79867e-06
4.50333e-05
-5.59189e-06
-5.70053e-05
-1.93106e-05
-3.39667e-05
4.75906e-05
2.16509e-05
-2.22092e-05
-2.47785e-05
-2.54153e-05
-5.89085e-06
-1.15653e-05
-4.13182e-05
-4.02364e-05
1.20606e-06
-4.48262e-05
2.04253e-05
3.3807e-06
-2.82909e-05
3.01643e-05
9.34815e-06
-6.71302e-05
-4.05738e-05
7.09333e-05
-3.39558e-05
-2.67514e-05
2.17734e-05
1.56369e-05
1.44397e-05
-8.9017e-06
-1.19935e-05
1.44328e-05
8.70281e-05
-9.69623e-07
1.2423e-05
-5.59278e-05
-1.92777e-05
3.90812e-05
3.06964e-06
-4.055e-05
7.56537e-06
6.72853e-05
3.9499e-05
-7.47542e-05
-3.48641e-05
2.46885e-05
-5.16153e-05
3.76697e-06
-4.08546e-05
-1.83191e-05
8.32834e-05
-3.53502e-05
-3.56355e-05
-9.10205e-06
-2.37036e-05
-7.61579e-05
-4.31736e-05
-3.44522e-05
3.03325e-05
-5.93212e-05
-4.43424e-05
-1.38485e-05
2.80145e-05
4.43455e-05
7.11216e-06
-4.18629e-07
-3.37958e-05
5.63173e-05
4.62118e-05
-7.51619e-05
0.000106831
-4.85462e-05
-1.38165e-05
-8.40984e-07
-1.4761e-05
-6.57007e-05