# vtk DataFile Version 1.0
Net Charge Density
ASCII
DATASET STRUCTURED_POINTS
DIMENSIONS 256 128 1
ORIGIN 0 0 0
SPACING 0.15625 0.15625 1
POINT_DATA 32768
SCALARS rhonet float
LOOKUP_TABLE default
-3.89642e-06
-9.51274e-05
0.000144792
9.63223e-05
3.56843e-05
0.00012045
-0.000118445
9.18584e-05
0.000154216
2.28998e-05
-3.75602e-05
0.000108725
0.00010382
7.94453e-05
0.000109346
4.99609e-05
8.77429e-05
0.000140235
4.05879e-05
-6.79102e-05
-6.40692e-06
0.00014186
0.000144767
4.77823e-05
3.72683e-05
2.07429e-05
7.7422e-05
9.05892e-05
-1.35219e-05
-7.2743e-05
5.23027e-05
3.97238e-05
4.3669e-05
6.90082e-05
1.24418e-05
0.000171713
1.68075e-05
7.28723e-05
7.73577e-05
-5.53066e-06
2.29314e-05
6.83172e-06
0.000136404
9.39816e-05
2.09389e-05
1.86831e-05
-3.1613e-05
6.95545e-05
0.000116213
7.88724e-05
-1.20075e-05
2.49777e-05
8.34422e-05
0.000148995
3.55954e-05
1.75037e-05
0.000151011
-5.17471e-05
5.67792e-06
7.16953e-05
5.02799e-05
6.06016e-05
7.16816e-06
8.01802e-05
8.22493e-05
-8.03834e-05
4.41821e-05
0.000136175
4.09959e-05
4.82835e-05
7.92339e-05
3.67115e-05
-2.69162e-05
4.96679e-05
-1.15018e-07
5.1155e-05
4.20858e-05
-3.83081e-05
9.21623e-05
0.000106615
8.71838e-05
2.54086e-05
7.49619e-05
0.000101106
4.54681e-05
-4.47989e-06
-1.6691e-05
6.70487e-05
0.000119669
-2.3488e-05
9.0003e-05
-1.47953e-05
-3.90529e-05
-6.21472e-06
-8.9918e-05
5.2272e-05
0.00015796
2.40979e-05
9.1688e-05
-2.49445e-05
0.000157724
9.09191e-05
-3.16941e-06
9.47258e-05
3.9038e-05
0.00013097
-2.57744e-07
-6.85492e-05
2.66219e-06
7.39994e-05
0.00013342
5.79277e-05
2.02985e-05
3.31152e-05
8.04209e-05
4.36596e-05
1.22658e-05
7.4969e-05
5.09606e-05
4.32278e-05
-3.98809e-05
-3.45631e-05
4.04443e-05
2.44897e-05
0.00011572
6.60872e-05
1.82549e-05
8.13099e-05
1.99639e-05
-1.88098e-05
0.000119796
9.26168e-05
-2.24414e-06
3.77481e-05
2.03244e-05
6.79609e-06
4.46088e-05
-3.19161e-05
4.68966e-05
-1.15026e-05
-4.98409e-05
2.32954e-05
2.09621e-05
0.000160761
9.88222e-05
2.06369e-06
0.000137836
1.15245e-05
-3.11241e-05
0.000132418
1.78269e-05
2.91319e-05
0.000108428
-8.34558e-06
3.45046e-05
4.32306e-05
5.74649e-06
3.4271e-05
-5.27629e-06
1.75424e-05
7.6778e-05
2.50083e-05
0.00011271
-2.20697e-05
3.25852e-05
2.55229e-05
5.84617e-05
-6.12724e-05
0.000105448
0.000137295
2.50289e-05
4.32235e-05
7.45822e-05
0.000111579
-2.02681e-05
-8.13336e-06
8.72936e-05
-8.23227e-05
1.15579e-05
3.31807e-05
8.87694e-05
-7.06003e-05
-3.18108e-05
5.65348e-06
1.04988e-05
7.98539e-05
4.14202e-05
7.20927e-05
0.000102554
7.46854e-05
2.48845e-05
0.000198125
8.16123e-05
-6.56993e-05
6.24192e-05
0.000201229
4.75226e-05
8.32754e-05
7.86668e-05
-1.63087e-05
5.95991e-05
0.00014917
4.39009e-05
3.83353e-05
-1.00759e-05
6.97708e-05
-5.9888e-05
5.3424e-05
6.86803e-05
8.57908e-05
6.81021e-05
0.000137439
0.000106096
-2.40521e-05
0.000111081
-0.000131281
0.00010269
9.90942e-05
-5.2873e-05
-3.79211e-05
8.69744e-05
0.000114877
0.000176992
3.40521e-05
7.95295e-05
5.67451e-05
-3.69132e-05
-1.51393e-05
8.69033e-05
6.86065e-05
6.22869e-06
4.16546e-05
2.36374e-05
2.60697e-05
0.000121307
-3.55699e-05
-2.05769e-05
2.75007e-05
5.94512e-05
8.97946e-06
1.84993e-05
8.66943e-05
-5.82666e-05
-3.06987e-07
2.659e-05
-1.44093e-05
-2.21956e-05
-3.95464e-05
0.000128655
-4.29619e-06
2.10479e-05
-3.8513e-05
0.000102294
2.14379e-05
2.4053e-05
4.18609e-05
-0.000104899
2.47045e-05
-6.30289e-05
-2.51194e-05
-2.38867e-05
5.12265e-05
-2.60449e-05
-7.57643e-05
4.98936e-05
-6.60461e-05
-4.29e-05
2.33415e-05
-5.9908e-05
-8.02724e-05
3.00293e-06
-4.24262e-05
4.66174e-06
1.08916e-05
-2.1575e-05
-4.06057e-06
-5.82074e-05
-6.74941e-05
-0.000106139
-1.79203e-05
-2.00456e-05
-5.72714e-05
-2.52764e-05
7.72963e-06
-3.07411e-05
-8.53869e-05
-3.53893e-05
-8.3613e-06
2.74419e-05
-7.9568e-05
-6.67481e-05
2.31334e-05
-0.000103178
-3.37884e-05
1.98339e-05
-8.20332e-05
-5.15865e-05
-4.38408e-05
8.67283e-06
3.55999e-05
-2.47129e-05
4.87431e-06
-0.000112384
-3.15168e-05
3.88797e-05
-3.39409e-05
-6.56127e-05
-4.11931e-05
-3.17378e-05
2.98243e-05
-2.85321e-05
-3.54571e-05
-2.34863e-05
-0.00011611
1.48108e-05
-3.37934e-05
4.56301e-05
-5.12686e-05
-5.7285e-05
-3.73453e-05
-3.01475e-05
-6.05665e-05
-1.00289e-05
-7.96339e-05
-0.000109192
1.21045e-05
-4.39815e-05
9.018e-06
-1.84358e-05
1.72413e-05
-5.13538e-05
-1.0433e-05
4.76098e-05
-2.54939e-05
5.74088e-05
2.15601e-07
-3.24125e-05
-5.04447e-05
-8.22564e-05
2.84826e-05
2.44663e-05
-6.16949e-05
-0.000158637
-4.16981e-05
-6.58911e-08
-1.69137e-05
8.77329e-06
5.33126e-05
3.15579e-06
-1.07941e-05
2.47147e-05
-5.96547e-06
3.43237e-05
-2.73115e-05
-6.84685e-06
-1.89489e-06
-4.36434e-05
-0.000106617
-3.96513e-05
-2.96774e-05
-3.55602e-05
1.64221e-05
-5.91241e-05
-4.27192e-05
-1.06718e-06
-6.00005e-06
5.4352e-05
-3.5424e-05
-7.13795e-05
-7.132e-05
4.01699e-05
1.15474e-05
-5.23519e-05
-1.11551e-05
9.64548e-06
3.1899e-05
-8.57752e-05
1.39608e-05
-6.13796e-05
-7.74174e-06
-3.48628e-05
-1.67098e-05
-4.55664e-05
-6.96026e-05
1.70252e-05
-4.88103e-05
-2.07967e-05
1.59817e-05
-1.05535e-05
-2.35443e-05
-1.24411e-05
-3.31044e-05
-4.60129e-05
-1.33576e-05
-4.22449e-05
-8.32288e-06
-5.94475e-05
-7.82583e-05
8.69727e-06
-2.01981e-06
-8.38252e-05
1.05491e-05
-3.22356e-05
-4.36762e-05
-0.000117681
-8.72568e-06
-3.99577e-05
-3.83077e-05
-7.16748e-05
9.37073e-06
3.00051e-05
-1.70406e-05
-2.3999e-05
-1.85566e-06
-5.11226e-05
-2.02556e-05
-8.13485e-05
-6.40947e-05
3.62429e-05
-8.0271e-05
-7.56327e-06
2.37459e-05
2.21165e-05
-5.27814e-05
-2.42516e-06
3.60705e-05
-9.46563e-05
1.02373e-05
-2.21478e-05
3.97036e-05
-4.13512e-05
-2.55482e-05
-5.70039e-06
3.04061e-05
-6.90698e-05
-4.77677e-05
3.67507e-05
-4.79701e-06
2.05962e-06
-4.86566e-05
-0.000107547
-6.60245e-05
-2.66008e-05
-2.24796e-05
-9.33022e-06
-1.88573e-05
-0.00010145
6.32252e-06
3.69591e-05
4.61028e-06
-1.08492e-05
-2.36547e-05
-8.50842e-05
-3.90909e-05
4.811e-05
-6.9777e-06
-7.51887e-05
-6.46278e-05
-4.37897e-05
3.07566e-05
-5.53509e-05
1.8311e-06
-5.12169e-05
9.71669e-05
1.17974e-05
-4.14068e-05
-5.22411e-05
-4.83991e-05
-4.73992e-05
3.21256e-05
-3.50825e-05
-7.29871e-05
1.69815e-06
-2.53884e-05
-1.98884e-05
4.50586e-06
-1.73197e-05
7.05677e-05
5.7089e-05
-6.70665e-05
-3.48982e-05
-2.7338e-05
-7.02045e-05
-2.06066e-05
2.42679e-05
8.58863e-05
-8.70343e-05
6.93509e-06
-4.34535e-05
-3.627e-05
6.90324e-05
3.75882e-05
-6.27585e-05
-4.99142e-06
2.55415e-05
-5.11213e-05
2.26246e-05
-1.34828e-05
-4.80206e-05
-1.98239e-05
3.05462e-06
3.73247e-05
3.42679e-05
-1.23482e-05
-2.31677e-05
-0.000132199
-1.66357e-07
-7.60623e-06
5.12584e-05
-7.35256e-06
-7.3632e-05
5.01692e-06
-3.30424e-05
-1.99093e-06
5.00251e-05
-7.79773e-06
-2.33895e-05
-8.47992e-06
1.05426e-06
-1.92298e-05
7.13237e-05
-5.15236e-05
7.82276e-06
3.1163e-05
6.53439e-05
-4.67901e-05
-2.9064e-05
-1.149e-05
-2.49564e-05
-9.34282e-05
-2.0482e-05
3.51586e-05
4.8863e-05
3.64082e-05
-1.6453e-05
3.77699e-05
6.1458e-05
-4.75245e-05
4.48453e-05
4.40085e-05
9.82312e-06
-5.10865e-05
1.23071e-05
2.34437e-05
7.04306e-05
4.9668e-05
-3.57146e-05
2.25287e-05
5.27361e-06
-2.51163e-05
4.80087e-05
3.404e-05
2.11629e-05
-2.89194e-05
-7.34263e-05
2.16747e-05
3.4873e-05
1.4212e-06
-4.63352e-05
1.81724e-06
-1.65713e-05
5.22443e-05
1.92712e-05
-4.25105e-05
-9.05949e-05
6.88434e-06
2.94286e-05
9.43197e-06
3.90756e-05
-4.01768e-05
2.79775e-05
-3.30703e-05
9.02761e-05
1.87058e-05
2.1936e-05
-2.38947e-05
3.89217e-05
7.9507e-05
-1.43051e-06
-1.0787e-05
-4.31226e-05
-5.63425e-05
3.65558e-05
5.69155e-06
-2.9766e-05
3.18503e-05
-3.75102e-05
-1.97688e-05
6.36958e-05
5.06418e-05
-4.8059e-05
-4.18767e-05
-9.31276e-06
-2.63562e-05
-1.33659e-05
5.09449e-05
7.41066e-05
-1.3881e-05
-5.52129e-05
-6.0239e-05
2.25469e-05
4.01649e-05
-3.56471e-05
4.60852e-05
6.04028e-05
1.00422e-05
-2.72852e-05
-6.84022e-05
1.03844e-05
-3.90669e-05
-6.6731e-05
1.89327e-05
-3.86647e-05
-7.26085e-05
1.55342e-05
3.44655e-05
-9.18144e-06
-2.52387e-05
3.49989e-05
6.7194e-05
-7.81438e-06
-2.3485e-05
1.90875e-05
-3.45561e-05
-3.24682e-06
3.17625e-05
-4.33623e-05
-4.4456e-05
-1.29163e-05
6.1907e-05
-1.54723e-05
-1.92431e-05
-9.34117e-07
1.07802e-05
-2.67869e-05
6.43284e-05
6.28293e-07
3.16111e-05
-3.45438e-05
-2.02107e-05
3.29814e-05
-8.92964e-06
-5.33776e-05
-6.58382e-05
-1.97744e-05
2.38337e-06
3.65477e-05
8.36735e-06
-1.87708e-06
1.4829e-05
-2.75736e-05
4.24779e-05
2.79525e-05
9.69109e-05
6.65832e-05
1.94262e-05
1.45672e-05
-1.36639e-05
5.90176e-05
5.77694e-05
-3.53308e-05
8.65558e-05
-1.88485e-05
-2.10223e-05
-5.39367e-05
1.12336e-05
-1.22988e-05
7.03163e-05
-1.07869e-05
6.14917e-06
5.77935e-05
3.47516e-05
-3.56396e-05
-5.85639e-06
4.38269e-05
2.99953e-05
1.48882e-05
3.09385e-06
-6.29971e-05
1.44143e-05
-9.34463e-05
4.10876e-05
-3.34163e-05
-7.2972e-05
6.78666e-06
-4.3138e-05
3.26064e-05
-5.40694e-05
-3.51893e-05
-7.3805e-06
-3.4679e-05
7.78167e-06
5.28595e-05
1.66988e-05
-1.61503e-06
7.61889e-05
-2.89618e-06
5.27902e-05
3.31e-05
2.69051e-05
3.20117e-05
-4.14012e-05
-7.91209e-05
6.70354e-06
-3.71061e-05
3.38536e-07
3.12878e-05
2.55893e-05
4.62427e-05
-7.34511e-06
3.85566e-05
-1.8248e-05
8.60398e-05
-3.51751e-05
-2.42112e-05
-2.44791e-05
3.96876e-05
3.96358e-05
-5.59608e-06
-1.5982e-05
5.26495e-05
-3.12829e-05
-9.51323e-06
1.32087e-05
3.03083e-05
4.01441e-05
-6.21305e-05
6.55744e-06
-4.02803e-05
7.68168e-05
-2.3057e-05
2.42738e-06
-2.36237e-05
-7.6571e-06
1.05565e-06
-7.58462e-05
1.89051e-05
4.24923e-05
2.7332e-06
-4.68802e-05
-0.000111356
2.32974e-05
1.92826e-05
1.66986e-06
4.11416e-05
-1.26259e-05
3.11434e-06
-2.15392e-05
-7.41895e-05
3.57798e-05
1.81666e-05
-4.43211e-05
1.38059e-05
2.4942e-05
-1.40071e-05
-5.45264e-05
-1.59675e-05
4.8483e-05
-4.49934e-06
-0.000139602
5.79737e-05
3.08063e-05
0.000100899
-3.7276e-05
3.82718e-05
1.96733e-05
-2.19458e-05
-3.16997e-05
-3.15022e-05
5.7979e-05
8.84749e-05
-9.06747e-06
-5.99885e-05
9.21893e-06
8.46386e-06
-1.87429e-08
-2.0785e-05
-3.9037e-05
0.000130274
-3.43213e-05
-4.70515e-05
5.37117e-05
-2.7963e-06
2.82284e-06
-3.79189e-05
-6.05409e-05
4.75423e-05
4.84358e-05
-1.7537e-05
3.74631e-05
-5.19103e-05
4.18174e-05
3.39499e-05
-6.99728e-05
2.73656e-05
3.88059e-05
1.67806e-05
-5.26785e-05
6.28688e-05
-2.19622e-05
-4.3101e-05
-7.40367e-06
-2.6679e-05
4.25465e-05
3.64962e-06
2.75732e-05
-4.73877e-05
-6.43742e-06
3.0309e-05
-2.26296e-05
-8.1934e-05
-4.95822e-05
1.36237e-05
3.36368e-05
4.53523e-05
-3.78172e-05
6.72047e-05
-2.02062e-05
-6.23042e-05
4.74693e-05
4.62763e-05
1.24061e-05
3.82878e-05
2.15032e-05
5.87145e-05
-6.50003e-05
-4.25664e-05
-1.34122e-05
4.39057e-05
4.78702e-05
-2.23202e-05
-6.05179e-05
1.98279e-06
-2.4375e-06
-3.0012e-05
1.48924e-05
2.92044e-05
7.28869e-05
7.06643e-05
-3.58251e-05
-0.000140627
2.58459e-05
1.2028e-06
-2.88255e-05
-4.69701e-05
5.72423e-05
3.12586e-05
1.75566e-05
-0.000107817
-1.58474e-05
1.13323e-05
3.99523e-05
3.28133e-05
-4.30103e-05
3.20359e-05
3.74885e-05
-3.91933e-05
2.83309e-05
3.71943e-05
-1.37138e-05
3.56365e-05
-5.4416e-05
8.30449e-05
3.03241e-05
-1.9427e-05
-2.67292e-05
6.84278e-05
4.1218e-05
-2.91601e-05
3.35347e-05
3.9214e-05
3.68368e-05
-3.48371e-05
-2.81513e-05
1.41672e-05
3.52946e-05
-7.15667e-05
-2.16158e-05
4.60052e-05
3.6499e-05
2.3186e-05
-3.12359e-05
-7.13486e-05
2.25478e-05
-3.52723e-05
7.69853e-05
-4.16432e-05
-1.37859e-05
7.45144e-05
-5.40669e-05
4.00422e-06
-1.77847e-05
-5.58047e-05
2.01226e-05
5.96023e-06
5.05822e-05
6.3116e-05
-6.58247e-05
8.14184e-05
-4.32248e-05
-2.44335e-05
2.67205e-05
4.39421e-06
9.56806e-06
7.65512e-06
4.39072e-06
-4.2216e-05
2.17031e-05
1.01271e-05
-1.56353e-05
-7.88145e-05
-2.79718e-05
-7.33137e-06
2.62833e-05
6.22857e-06
2.38399e-05
-8.04092e-06
5.26158e-05
3.0096e-05
-3.07956e-05
-8.68586e-05
1.14744e-05
3.87327e-05
1.11606e-05
-2.85618e-05
-9.12475e-06
-2.48197e-06
2.21182e-05
-3.22936e-06
2.53445e-05
2.25466e-05
3.20964e-05
-2.08742e-05
-3.06277e-06
6.05593e-06
-3.41365e-06
3.49663e-05
-2.44873e-05
5.34742e-05
1.96631e-05
1.27885e-05
-1.15688e-05
2.92525e-05
2.87069e-06
3.3959e-05
-1.87166e-05
-2.88629e-06
-6.90413e-05
2.46682e-05
-5.03869e-06
-1.26838e-05
2.05982e-05
-2.634e-05
-2.66172e-06
-3.0247e-05
-7.38935e-05
-1.16545e-05
0.000124287
-9.67178e-05
2.30561e-05
4.08882e-05
1.12084e-05
1.89699e-05
2.29753e-05
-6.50404e-05
-1.85565e-05
-3.58941e-05
9.88797e-06
-2.25087e-05
-0.00011462
5.06442e-05
-0.000120174
-5.21552e-05
0.000129995
-2.85544e-05
-3.29311e-05
1.39811e-05
-3.08792e-06
-4.5842e-06
-6.87174e-05
5.00935e-07
2.5406e-05
-3.0681e-05
-4.83696e-05
-2.09832e-05
3.77462e-05
3.99076e-05
1.09907e-05
-3.37753e-05
2.43069e-05
4.91926e-05
4.58611e-05
-7.13919e-05
-6.57425e-05
-4.48677e-05
5.14663e-05
2.45066e-06
-1.54728e-06
-6.9671e-05
3.42028e-07
-1.04237e-05
6.89435e-06
-2.29037e-05
-2.35485e-06
-3.06215e-05
3.2741e-05
-3.22703e-06
-1.03376e-05
-2.52565e-05
2.84624e-05
9.52233e-05
-3.0262e-05
3.21714e-05
4.4381e-05
-4.5409e-05
-0.000101101
-3.30772e-05
0.00011101
6.25446e-05
-5.28276e-05
-0.000107186
-1.18128e-05
6.8567e-05
3.46117e-05
-5.40469e-05
-5.21382e-05
4.75182e-05
-4.06371e-05
-0.000119436
6.12035e-05
-1.81568e-05
-3.11728e-05
0.000105493
-4.54735e-05
-9.29439e-05
-5.38457e-05
9.50531e-06
-5.54994e-05
1.67225e-05
4.28164e-06
-7.23694e-05
6.52391e-06
4.59248e-05
6.77758e-06
-2.06695e-06
5.32218e-05
2.83379e-05
-3.75981e-05
-4.85515e-05
0.000104193
-1.62807e-05
-5.72763e-06
-2.96994e-05
-2.6722e-06
-4.58116e-05
8.22812e-06
-1.31106e-05
-4.38886e-05
-3.36709e-05
-5.4954e-05
4.80604e-05
-3.43907e-05
5.5093e-05
-3.26773e-05
-2.49944e-05
-9.60927e-06
3.26964e-05
-4.34383e-05
8.21739e-05
3.99072e-06
1.01075e-05
-2.64167e-05
-1.68558e-06
5.18317e-05
-5.05236e-05
7.65342e-05
-2.69966e-05
-2.84484e-05
5.25336e-06
1.91286e-05
5.75266e-05
-1.55072e-05
1.41475e-05
1.54797e-05
9.67546e-05
-2.60588e-05
2.79734e-06
-6.86488e-05
-4.36418e-06
5.35545e-06
-6.23404e-07
-1.12267e-05
2.7611e-05
-7.06457e-05
2.38866e-05
3.64641e-05
-5.8607e-06
-1.47325e-05
5.85361e-05
-1.46357e-06
5.05708e-07
-8.36351e-06
-6.68818e-05
-7.45861e-06
-5.66773e-05
5.49137e-05
-1.5568e-05
-6.51169e-05
1.93971e-05
-2.50088e-05
1.49547e-05
4.44492e-05
-8.87853e-06
-5.64917e-05
-7.07048e-05
-8.34162e-06
-2.96299e-05
-2.15322e-06
-1.83217e-05
-1.89338e-06
-0.000102778
8.74768e-06
3.24821e-05
3.07963e-05
-0.000103662
-3.6156e-05
2.02425e-05
8.39112e-05
4.75231e-06
-1.31453e-05
3.19695e-05
7.14906e-07
-3.71368e-05
-7.51375e-05
-6.92122e-05
-2.21271e-06
-7.09703e-05
1.36672e-06
-4.37516e-05
5.21007e-05
-3.20333e-05
-2.11224e-05
9.38191e-06
-1.06008e-06
4.85103e-06
-2.59297e-05
5.72978e-05
-2.03847e-05
4.02208e-05
1.71225e-05
-4.36113e-05
4.79084e-06
-4.09901e-05
-3.49362e-07
2.30944e-05
-3.31623e-05
1.34478e-05
1.23588e-05
-2.61037e-05
-4.6381e-05
1.17683e-05
-4.40204e-05
0.000100773
4.16168e-05
5.95755e-05
5.72694e-06
3.63542e-06
3.72172e-05
-2.83865e-05
-2.65327e-05
-3.87032e-05
-3.32443e-05
-2.94542e-06
-4.83391e-06
-7.42385e-05
-9.21183e-05
-4.12923e-05
9.36044e-05
1.79685e-05
2.46145e-05
5.079e-05
-3.90917e-05
-4.86934e-05
-6.07774e-05
2.91873e-05
-7.01526e-05
2.39768e-05
5.71002e-05
1.43806e-05
-8.54447e-05
6.48923e-05
5.64125e-06
1.15008e-05
-0.000120717
5.33742e-05
7.36073e-05
5.39178e-06
1.38736e-05
1.18418e-05
-9.65118e-06
3.66953e-05
-3.03433e-05
4.71821e-05
6.17247e-05
-4.68071e-06
-4.04327e-05
-2.984e-05
4.8338e-06
-1.19209e-06
4.36946e-05
-1.84949e-06
-1.13768e-05
-1.70612e-05
7.82477e-05
-4.58362e-06
1.7914e-05
-3.6285e-05
-7.78636e-05
7.38347e-05
-9.19306e-05
-5.20796e-06
2.09284e-05
2.30642e-06
7.05888e-05
3.83814e-05
7.42089e-06
5.50137e-05
-1.01445e-05
4.60941e-05
-1.6838e-05
-5.88751e-05
-4.91892e-05
5.14216e-05
5.45882e-05
-1.98535e-05
5.81008e-05
3.02009e-05
1.3881e-05
2.24966e-05
6.25569e-05
6.90215e-06
-8.80084e-05
-1.34254e-05
-5.00737e-06
4.86998e-05
5.99246e-05
6.30913e-05
1.42655e-06
2.14427e-05
-2.66382e-05
-9.90403e-06
-6.22045e-05
-1.60283e-05
3.2595e-05
-3.85358e-05
-1.90419e-05
5.31538e-05
-2.28166e-05
1.54101e-05
-4.23556e-05
-5.64381e-07
-5.11482e-05
-1.0791e-05
-0.000114607
2.06344e-05
1.91703e-05
7.2854e-05
2.73277e-05
-4.94907e-05
5.0578e-05
5.27877e-05
6.41991e-05
-7.99017e-06
4.43971e-05
-4.86516e-05
-2.58867e-05
-3.12887e-05
9.76643e-05
-4.46022e-05
-4.87095e-05
2.7045e-05
-5.04581e-05
1.36549e-05
-9.01837e-05
-0.000131355
6.04794e-05
5.67497e-05
-1.70096e-05
2.47732e-05
-9.1088e-06
5.16701e-05
-8.06588e-05
3.82913e-05
3.78338e-05
1.59072e-05
-7.9762e-06
-6.655e-06
3.57416e-05
3.13771e-05
-9.32617e-05
-4.72958e-05
-9.38084e-05
-4.97693e-05
6.8474e-05
-3.54389e-05
9.14512e-06
-3.66232e-05
3.87211e-05
1.69341e-05
4.47609e-05
-5.40494e-05
2.94936e-05
6.61316e-05
1.22407e-05
-6.64288e-05
1.13377e-06
1.48173e-05
-1.36937e-05
6.08945e-05
-9.0932e-07
7.89304e-05
9.09693e-06
5.26162e-05
-9.66366e-05
3.41136e-05
6.60541e-06
-1.27819e-05
-4.43452e-05
-2.06705e-05
3.15078e-06
-9.30973e-07
-6.30612e-05
-0.000100799
-4.15872e-05
-9.1508e-05
-4.81863e-05
5.62916e-05
-1.52455e-05
-5.22903e-05
-2.41201e-05
-1.08294e-05
-4.57694e-05
-4.23098e-05
1.19054e-05
2.83606e-05
-1.41365e-05
-5.28245e-05
-6.13476e-05
1.77321e-05
1.07327e-05
-2.0828e-05
5.96312e-05
1.79058e-06
2.51201e-05
-2.36357e-05
5.8867e-05
3.1895e-05
4.76111e-05
-7.31895e-05
7.22469e-05
-0.000100921
-6.24091e-06
6.49312e-05
8.48947e-06
3.23066e-05
-3.30713e-06
-4.32202e-05
2.37813e-06
1.99971e-05
-1.27295e-05
9.59367e-06
3.61402e-05
2.75427e-05
6.92133e-05
-2.72365e-06
-6.3224e-05
-6.14556e-06
-7.61054e-06
-1.0211e-05
4.45034e-05
5.20132e-06
2.67306e-05
-6.6295e-06
-4.79852e-06
-2.94803e-05
1.43549e-05
5.68968e-06
6.79198e-05
9.01206e-06
3.43911e-05
1.84253e-05
1.29042e-05
-4.46519e-05
3.45935e-05
3.36549e-05
1.93855e-06
-1.88097e-05
4.46873e-05
-5.23893e-05
6.75365e-05
7.74651e-05
6.37211e-06
8.1385e-05
-3.1811e-05
2.20668e-05
-1.73567e-05
-2.87808e-05
-6.86577e-05
1.19235e-05
2.47909e-05
1.23702e-05
-3.48674e-05
2.16777e-05
-2.20751e-05
-3.52552e-06
1.23344e-05
1.70933e-06
2.97126e-05
-6.88564e-05
-1.33738e-05
9.18959e-05
-3.43515e-05
1.47283e-05
-1.2363e-05
4.94566e-05
2.42065e-05
-4.44683e-05
5.05936e-05
0.000106778
9.66935e-05
6.52503e-05
8.89529e-07
-7.20751e-06
-1.14568e-05
6.669e-05
-5.448e-06
4.01795e-05
-2.33977e-05
4.17558e-05
-3.41272e-05
-2.1398e-05
6.28154e-06
-2.6264e-05
3.5821e-05
-8.93143e-05
4.69468e-05
-3.57556e-05
3.30252e-05
2.34641e-05
-9.97114e-05
2.21336e-05
3.5702e-05
-1.87461e-05
2.13258e-05
-6.78236e-05
2.71616e-05
-5.16979e-05
5.68139e-05
4.88441e-05
-1.74805e-05
3.80413e-05
4.5417e-05
1.17875e-05
-8.37969e-06
2.07492e-05
-2.05643e-05
5.28253e-05
-7.5706e-05
-4.26272e-05
-7.67293e-06
2.04985e-05
-1.54353e-05
-3.12328e-05
1.17398e-05
6.21655e-05
4.88082e-05
4.33612e-06
-0.00012757
-5.02239e-05
-6.86673e-05
-6.61e-05
3.09134e-05
7.61505e-05
-7.01353e-05
-7.02997e-06
9.28529e-06
4.82404e-05
3.84008e-06
8.47306e-06
-6.75763e-05
-1.85827e-05
1.21736e-05
-8.66782e-06
-3.19524e-05
-1.42831e-05
3.18419e-06
7.33125e-06
1.82409e-05
2.56515e-05
-6.78841e-05
-4.7147e-06
3.49282e-05
-5.05331e-05
1.07939e-05
-1.50142e-05
-1.63051e-05
-2.95398e-05
9.53891e-05
2.63905e-05
-1.76692e-05
-2.15018e-05
-1.27993e-05
8.03312e-06
-1.3581e-05
2.63907e-05
-7.18527e-06
-1.90845e-05
2.17274e-05
5.39329e-05
-9.03432e-05
5.79043e-05
-1.44779e-05
-1.46058e-05
-3.8323e-05
-4.54388e-05
2.61618e-05
5.74819e-05
2.07159e-05
1.80582e-05
2.61941e-05
-7.22148e-06
-2.65971e-05
2.38708e-05
-3.81797e-05
-3.29986e-05
2.86611e-05
4.19549e-06
5.34141e-05
-1.29018e-05
-4.54648e-06
9.10498e-05
1.6332e-05
1.69142e-05
-4.63274e-05
3.55742e-05
-3.91714e-05
2.29455e-05
1.72227e-05
3.08629e-06
6.80585e-05
6.72806e-05
-1.70236e-05
-7.54697e-06
4.55864e-05
-1.23871e-05
-6.61262e-06
0.000122597
3.26283e-05
1.82125e-05
2.49495e-05
-5.22536e-05
-2.22393e-05
-5.70163e-05
1.30443e-06
7.69005e-06
2.41779e-05
1.07717e-05
-5.2068e-05
1.76704e-05
6.44936e-05
-6.11887e-05
5.44073e-05
-4.4932e-05
-7.052e-05
6.23101e-06
3.27916e-05
4.70877e-05
1.32737e-06
1.32954e-05
-7.78603e-05
-2.81831e-05
-6.89237e-06
0.000112601
3.68478e-05
-3.34259e-05
4.85625e-05
3.18353e-05
1.14887e-05
6.94898e-05
0.000133271
-7.38592e-05
-4.20366e-05
-1.68971e-05
2.0411e-05
8.13254e-06
-1.95543e-05
3.47552e-05
5.05912e-05
-6.30394e-05
-4.22694e-05
1.7963e-05
5.70349e-05
-6.66711e-07
2.8398e-05
-3.47799e-05
-8.23162e-05
-3.16929e-05
-5.51022e-05
-1.69484e-05
6.43997e-05
-5.57762e-05
5.25208e-05
-0.000112341
-7.10649e-05
-1.52236e-05
-1.60269e-05
-3.593e-05
5.28323e-05
4.40276e-05
-4.75533e-06
-6.05786e-05
-2.0325e-05
1.72132e-05
2.40916e-05
-2.15005e-05
-3.80276e-05
1.84209e-05
-5.22971e-05
-1.48042e-05
-9.0426e-05
-1.86135e-05
-1.40986e-05
0.000121307
-2.54706e-05
5.25198e-05
3.79479e-05
3.11936e-05
-3.85303e-05
-5.10248e-06
-4.4966e-05
2.62945e-05
1.12429e-05
-1.86058e-05
1.74431e-05
-3.76215e-05
8.71113e-06
-3.17951e-05
7.1465e-05
-7.47018e-05
0.000101809
5.19645e-05
3.18054e-05
1.94156e-05
4.63664e-05
-3.00491e-06
1.62395e-05
7.99986e-05
3.67581e-06
-1.37991e-05
-5.21089e-05
-5.62184e-05
2.68226e-05
-3.78018e-05
-4.78231e-05
2.88635e-05
-2.68994e-05
-1.16545e-05
-5.02805e-05
3.10766e-05
-2.00593e-05
3.8109e-05
-8.71745e-05
-4.69055e-05
1.67191e-05
4.92432e-05
9.12754e-06
1.42609e-06
-6.69415e-05
-7.27304e-05
-1.43615e-05
-9.74489e-06
-1.56977e-05
2.6738e-05
-9.21221e-05
-5.88645e-05
-1.25878e-05
5.10605e-05
-8.97492e-05
7.86014e-05
1.30895e-05
1.51682e-05
-0.000114672
-4.19713e-05
1.06478e-05
8.84153e-05
-6.75302e-06
-6.93044e-06
1.08086e-05
-9.15198e-05
-1.49584e-05
1.07787e-05
5.18088e-05
-3.28287e-05
4.25938e-05
9.43057e-06
7.85571e-07
4.0361e-05
-3.83507e-06
2.66731e-05
-2.21876e-05
6.11413e-07
2.16393e-06
1.83085e-05
-2.01636e-05
-7.52348e-05
-8.20156e-05
-4.08828e-05
3.06884e-05
3.11449e-05
-1.7603e-05
-1.14891e-05
3.875e-05
9.27411e-06
1.17535e-05
-4.44875e-05
-5.27482e-05
-4.26522e-05
9.60724e-05
-3.91067e-05
-6.17565e-05
-4.51249e-05
4.72018e-06
-4.15777e-05
-1.74739e-06
2.57663e-05
4.81145e-05
-3.5077e-05
2.89144e-05
3.42642e-05
2.19489e-05
-2.03151e-05
-2.84289e-05
2.95839e-05
6.23254e-05
1.81493e-05
-1.77098e-05
-4.229e-05
-3.51772e-06
6.32227e-05
3.54706e-06
7.6323e-06
-5.29387e-06
1.01699e-05
2.74982e-05
2.91362e-05
-2.60759e-05
-5.97396e-05
8.67881e-05
3.29313e-05
-1.45726e-05
-1.42372e-05
5.72905e-05
3.8431e-06
9.81888e-05
0.000121367
-2.85936e-05
2.49979e-05
7.87154e-06
-1.86716e-05
-1.7015e-05
-7.32375e-05
0.00011208
-1.25974e-05
-6.01788e-05
7.86257e-06
3.08839e-05
9.78366e-06
7.84057e-06
1.71358e-05
4.92437e-08
-2.67222e-05
-2.56816e-05
-4.13364e-05
-4.55837e-05
-1.76243e-05
-7.76537e-06
-4.82693e-05
7.13983e-05
1.64242e-05
3.01737e-05
-3.19597e-05
1.39845e-05
-1.39403e-05
-1.55895e-05
4.47629e-06
-1.65855e-05
8.27657e-05
5.56015e-05
5.67234e-06
3.54114e-05
2.86242e-06
-1.63056e-05
2.07491e-05
9.63197e-06
-1.4501e-05
-4.88881e-05
-4.07482e-05
-9.69204e-06
4.12578e-05
-2.15801e-05
-3.41521e-05
5.64966e-05
-1.37319e-05
-5.04198e-05
3.84735e-05
-2.33625e-05
-1.19605e-06
-5.94468e-05
5.95208e-06
6.40077e-05
-7.39724e-05
-2.23716e-05
-4.28874e-06
-7.43157e-05
-1.58093e-05
5.60067e-05
-2.4101e-05
5.20151e-05
4.58728e-05
-3.16426e-05
0.000122278
2.89971e-05
1.20708e-05
-2.74088e-05
-3.4468e-05
-3.20205e-05
5.98456e-05
4.27907e-05
-2.54271e-05
-1.6286e-05
4.25265e-05
4.55983e-05
-7.08057e-05
-4.53843e-05
-1.75915e-05
6.00134e-05
3.70807e-05
4.36977e-05
-7.64499e-06
2.17555e-05
1.48437e-05
1.4781e-05
3.49521e-05
1.44988e-05
-7.17351e-05
5.90795e-05
3.93526e-05
-1.62125e-05
4.74525e-05
-1.84565e-05
-3.84232e-05
8.46089e-05
5.7898e-05
5.29923e-05
-2.82943e-05
-1.40263e-05
-3.38187e-06
6.56866e-05
1.70167e-05
1.8166e-05
-1.4518e-05
-3.22151e-05
8.30169e-06
5.70649e-05
3.72088e-05
6.89622e-05
3.92869e-05
3.0786e-05
-1.59347e-05
4.17503e-05
8.47306e-06
-3.21826e-05
-1.07548e-05
-1.45924e-05
5.39321e-05
1.21888e-05
2.11239e-05
-2.64747e-05
1.12987e-05
-2.3908e-05
-1.44512e-05
1.09986e-05
-7.73545e-06
4.69072e-06
1.68593e-05
6.67062e-05
1.57991e-05
-0.00010758
-8.24992e-05
6.52322e-06
-5.8507e-05
5.17325e-05
1.84863e-05
1.66779e-05
-7.07685e-05
5.68479e-06
-1.86223e-05
-4.33427e-05
5.8328e-05
-4.15357e-05
-7.76744e-05
-1.33205e-05
-3.74749e-05
-1.09966e-06
5.0631e-05
3.43451e-05
5.21399e-05
2.95319e-05
4.71438e-05
-2.02375e-05
0.000134812
5.5166e-05
-3.82707e-05
-1.12213e-05
0.000111733
1.12818e-06
-1.38336e-05
-2.07328e-05
-1.05342e-05
5.75138e-06
2.51086e-05
-6.47184e-05
1.22259e-06
0.00011825
2.02323e-05
-6.96789e-05
-8.3458e-05
9.06892e-05
4.29546e-05
-6.09942e-05
-2.33634e-06
4.5246e-06
-2.48619e-05
-7.49842e-05
-6.30086e-06
3.39795e-05
6.28866e-05
-2.65939e-06
-2.97541e-05
-6.67723e-05
-1.0831e-05
7.42357e-06
3.03184e-05
-1.26918e-05
1.26478e-05
-3.24745e-05
-1.54035e-05
4.65959e-05
-6.06058e-07
-7.33233e-05
-3.61174e-05
3.19344e-05
5.07126e-05
5.52053e-05
-3.86602e-05
-2.71011e-05
-1.73226e-06
4.00436e-05
-1.28829e-05
1.15236e-05
2.7538e-05
1.51002e-05
2.02368e-05
3.2782e-05
-0.000103583
-2.37203e-05
5.62993e-05
-3.56046e-05
-8.56412e-05
0.000101618
-2.907e-05
2.1579e-05
-5.19508e-05
6.29376e-06
-5.95588e-05
3.80212e-06
-4.01158e-05
2.2179e-05
-9.73768e-06
6.35824e-05
-2.76127e-05
-2.54393e-05
9.06726e-05
-5.55887e-05
-3.51444e-05
1.47803e-05
-2.30945e-05
3.4685e-05
-4.10145e-05
-1.09314e-05
2.98407e-05
3.45651e-05
-4.78462e-05
-5.78746e-05
-3.7299e-05
3.58617e-05
-1.02355e-05
-1.76751e-05
3.83472e-05
4.55102e-06
-3.07257e-05
-6.31746e-05
6.1912e-06
-5.68886e-05
0.000120349
-0.000117728
-6.80874e-05
1.01869e-05
-1.02163e-05
2.82162e-05
-1.96021e-05
-6.25604e-06
3.50743e-05
9.93139e-06
-5.96482e-05
5.40573e-05
-2.97577e-05
-7.26199e-07
-9.39111e-06
-2.64803e-05
5.89003e-05
9.35844e-05
7.95013e-05
-1.68922e-05
-6.82932e-05
-7.7704e-05
4.75619e-05
-1.31759e-06
1.17443e-05
5.16304e-05
-6.31505e-05
2.21427e-05
3.45722e-05
-3.89622e-05
4.92728e-05
9.85339e-06
-2.73689e-05
-7.18011e-05
-2.20712e-06
9.4123e-06
5.68598e-05
-2.01401e-05
-8.62195e-06
7.08981e-06
9.58098e-07
-2.9198e-05
-3.67721e-05
9.86969e-07
-7.08341e-06
-7.77077e-05
4.07126e-05
2.28041e-05
-2.3353e-05
-2.82732e-05
6.35535e-06
-3.10612e-05
-2.37784e-05
5.8766e-05
3.77758e-05
-8.88541e-05
1.88742e-05
2.82151e-05
2.42069e-05
-1.97265e-05
3.13716e-05
2.6772e-05
-2.78915e-05
-1.14418e-05
4.39797e-05
-1.84723e-05
6.28957e-06
-9.41602e-06
3.67075e-05
-1.65384e-05
-2.21913e-05
-3.26345e-05
2.11542e-05
-9.05289e-05
-2.25269e-05
7.17817e-06
-1.67803e-05
-5.12953e-05
-4.15263e-05
3.02579e-05
1.8758e-05
1.34521e-05
6.79975e-05
0.000103678
-2.68697e-05
-5.62211e-05
-7.36886e-06
-8.72929e-06
-8.2209e-06
-0.000119192
3.07655e-05
9.97079e-05
7.93557e-05
2.35236e-05
2.89502e-06
3.23566e-05
6.61914e-06
-1.27405e-05
-1.12366e-05
3.50212e-06
6.08943e-05
-6.73521e-06
5.99327e-05
-9.10833e-06
-4.93437e-05
-1.25014e-05
-1.79211e-05
3.41781e-05
-3.37977e-05
7.39528e-06
5.94541e-05
0.000102923
1.58973e-05
2.07382e-06
6.60839e-05
-5.49527e-05
-6.42203e-05
4.83659e-06
5.86055e-05
-3.53623e-05
-0.000113618
-3.21864e-05
8.25257e-06
3.03725e-05
4.09468e-06
1.25889e-05
-2.57912e-05
4.0303e-06
-1.99418e-05
-0.000115459
-8.30356e-06
2.3432e-05
1.67682e-05
-9.89949e-06
-1.77938e-05
3.41068e-05
5.38381e-05
-8.89762e-07
-3.26862e-05
-1.44825e-05
1.08392e-05
2.86291e-05
1.41957e-05
-1.13221e-05
4.36332e-05
-9.70042e-06
4.36597e-05
-6.26012e-06
-6.49588e-05
8.33401e-05
7.37363e-06
-2.33592e-05
-5.29966e-05
8.21962e-06
-7.67077e-05
-5.47338e-05
1.69978e-05
-2.35284e-05
6.93043e-05
-5.89243e-05
-1.58971e-05
-3.79677e-06
-4.36555e-05
1.74972e-06
6.90902e-06
-1.56342e-05
-1.26809e-05
-6.31332e-06
-2.87477e-05
6.3584e-05
-1.27365e-05
2.98875e-05
-1.94581e-05
0.000106661
-6.87311e-05
2.64263e-06
7.97829e-05
-7.28986e-05
-2.11622e-05
-1.82888e-06
-5.65453e-06
-3.07187e-05
-1.66474e-07
6.131e-05
-4.53606e-05
-3.93682e-06
2.74233e-05
5.10011e-05
6.30203e-06
2.15231e-05
-5.93143e-05
-4.52385e-05
-4.56918e-05
-4.39745e-05
-2.38912e-05
-5.03429e-05
-2.24271e-05
-6.2891e-05
1.11948e-05
0.000117078
1.0884e-05
1.60327e-06
7.11589e-06
-1.24834e-05
-9.79601e-05
1.17278e-05
-2.4335e-05
-6.52869e-05
-4.57339e-05
9.775e-05
-2.84507e-05
2.46852e-05
2.89709e-05
-3.3951e-05
9.19258e-05
-5.06386e-05
-3.13993e-05
4.17931e-07
2.26258e-05
5.23939e-05
-4.6351e-05
3.01935e-06
-7.25875e-05
3.62424e-05
4.53799e-05
5.10277e-05
4.96121e-05
1.14616e-05
6.31425e-06
1.38571e-05
1.41456e-06
1.35631e-05
-5.94301e-05
-5.26094e-05
-3.14449e-05
3.68987e-05
-1.13063e-06
4.3941e-06
1.65978e-05
1.01099e-05
-4.56739e-05
-5.67071e-05
-2.16058e-05
3.75416e-06
3.02104e-05
2.47171e-05
-3.70552e-05
-4.68162e-05
-8.03268e-05
-3.89203e-05
8.4645e-05
4.35198e-05
1.9897e-05
-8.1755e-06
-6.95791e-06
-5.38768e-05
3.58439e-05
-6.18509e-05
7.90434e-05
-1.59483e-05
-3.99172e-05
-6.26172e-05
3.51222e-05
5.15338e-05
1.96998e-06
-3.47104e-06
-9.94897e-06
5.45722e-05
-4.35942e-05
-3.20034e-05
3.58503e-05
-2.33697e-05
-7.19377e-06
3.16274e-05
-2.36785e-05
4.7909e-05
6.11601e-05
-1.50183e-05
5.83358e-05
-1.60109e-05
-5.55504e-05
-4.11179e-05
3.92949e-05
8.73664e-05
-9.01869e-06
2.39057e-05
5.31232e-05
-2.11771e-06
3.75921e-05
-6.11139e-05
-5.37821e-05
4.7565e-05
-2.9743e-05
-7.41596e-05
-1.30136e-05
3.82878e-06
-4.95902e-05
-1.00626e-05
1.48063e-05
3.36731e-06
-4.77554e-05
-3.26615e-05
4.77955e-06
4.40956e-05
4.04308e-05
-4.65775e-05
-4.65791e-05
9.95421e-06
6.58092e-05
1.77752e-05
-1.76016e-05
-0.000102062
4.74707e-05
-2.01679e-05
-7.7755e-06
-8.79879e-06
4.50329e-05
-5.59189e-06
-5.70052e-05
-1.93106e-05
-3.39666e-05
4.75902e-05
2.16514e-05
-2.22095e-05
-2.47791e-05
-2.54153e-05
-5.89085e-06
-1.15661e-05
-4.1318e-05
-4.02362e-05
1.20606e-06
-4.48258e-05
2.04254e-05
3.38058e-06
-2.82917e-05
3.01637e-05
9.34862e-06
-6.71304e-05
-4.05738e-05
7.09334e-05
-3.39553e-05
-2.67513e-05
2.17734e-05
1.56357e-05
1.44396e-05
-8.90193e-06
-1.19939e-05
1.44322e-05
8.70283e-05
-9.69623e-07
1.2423e-05
-5.59273e-05
-1.92779e-05
3.90811e-05
3.06976e-06
-4.05501e-05
7.56583e-06
6.72848e-05
3.9499e-05
-7.47545e-05
-3.48641e-05
2.46885e-05
-5.16151e-05
3.76708e-06
-4.08548e-05
-1.83193e-05
8.32834e-05
-3.53503e-05
-3.5636e-05
-9.10216e-06
-2.37037e-05
-7.61575e-05
-4.31736e-05
-3.44525e-05
3.03317e-05
-5.93206e-05
-4.43419e-05
-1.38485e-05
2.8014e-05
4.43452e-05
7.11228e-06
-4.18164e-07
-3.37955e-05
5.63179e-05
4.62115e-05
-7.51622e-05
0.000106831
-4.8546e-05
-1.38164e-05
-8.41566e-07
-1.47608e-05
-6.57007e-05
-1.5521e-05