# vtk DataFile Version 1.0
Net Charge Density
ASCII
DATASET STRUCTURED_POINTS
DIMENSIONS 256 128 1
ORIGIN 0 0 0
SPACING 0.15625 0.15625 1
POINT_DATA 32768
SCALARS rhonet float
LOOKUP_TABLE default
-3.89584e-06
-9.51276e-05
0.000144792
9.63219e-05
3.56844e-05
0.000120451
-0.000118445
9.1858e-05
0.000154216
2.28995e-05
-3.75608e-05
0.000108726
0.00010382
7.94453e-05
0.000109346
4.99605e-05
8.7743e-05
0.000140235
4.05877e-05
-6.79101e-05
-6.4075e-06
0.000141859
0.000144766
4.77821e-05
3.7268e-05
2.07428e-05
7.74218e-05
9.05889e-05
-1.35213e-05
-7.27427e-05
5.23024e-05
3.97239e-05
4.3669e-05
6.90084e-05
1.24415e-05
0.000171713
1.6807e-05
7.28724e-05
7.73576e-05
-5.53124e-06
2.29324e-05
6.83218e-06
0.000136403
9.39809e-05
2.09388e-05
1.86829e-05
-3.16133e-05
6.95545e-05
0.000116214
7.88723e-05
-1.20077e-05
2.49783e-05
8.34424e-05
0.000148995
3.55957e-05
1.75042e-05
0.000151011
-5.17472e-05
5.67781e-06
7.16957e-05
5.02798e-05
6.06021e-05
7.16792e-06
8.01799e-05
8.22488e-05
-8.03831e-05
4.41824e-05
0.000136175
4.09959e-05
4.82835e-05
7.92334e-05
3.67112e-05
-2.69155e-05
4.9667e-05
-1.15018e-07
5.11552e-05
4.20858e-05
-3.83084e-05
9.21619e-05
0.000106615
8.71845e-05
2.54083e-05
7.49622e-05
0.000101105
4.54688e-05
-4.48036e-06
-1.66912e-05
6.70482e-05
0.000119669
-2.34875e-05
9.00029e-05
-1.47955e-05
-3.90527e-05
-6.21448e-06
-8.99173e-05
5.22714e-05
0.000157961
2.40976e-05
9.16884e-05
-2.49438e-05
0.000157723
9.0919e-05
-3.16952e-06
9.47255e-05
3.90384e-05
0.00013097
-2.58326e-07
-6.85493e-05
2.66253e-06
7.39996e-05
0.00013342
5.79281e-05
2.02989e-05
3.31153e-05
8.04211e-05
4.36596e-05
1.22658e-05
7.4969e-05
5.09605e-05
4.32273e-05
-3.98805e-05
-3.45641e-05
4.04443e-05
2.44897e-05
0.000115721
6.60875e-05
1.82549e-05
8.13097e-05
1.99644e-05
-1.88104e-05
0.000119796
9.2616e-05
-2.24379e-06
3.77491e-05
2.03245e-05
6.79679e-06
4.46092e-05
-3.19162e-05
4.68966e-05
-1.15028e-05
-4.9841e-05
2.32958e-05
2.0962e-05
0.000160761
9.88224e-05
2.06381e-06
0.000137836
1.15242e-05
-3.11241e-05
0.000132418
1.78269e-05
2.91317e-05
0.000108428
-8.34523e-06
3.45042e-05
4.32301e-05
5.74614e-06
3.42712e-05
-5.27641e-06
1.75424e-05
7.67777e-05
2.50086e-05
0.000112709
-2.20692e-05
3.25851e-05
2.55231e-05
5.84614e-05
-6.12722e-05
0.000105448
0.000137296
2.50295e-05
4.32238e-05
7.45818e-05
0.000111579
-2.0268e-05
-8.13336e-06
8.72934e-05
-8.2322e-05
1.15578e-05
3.31808e-05
8.87695e-05
-7.06001e-05
-3.1811e-05
5.65406e-06
1.04985e-05
7.98539e-05
4.142e-05
7.20927e-05
0.000102554
7.46854e-05
2.48844e-05
0.000198125
8.16127e-05
-6.56993e-05
6.24197e-05
0.000201229
4.75225e-05
8.32756e-05
7.86666e-05
-1.63092e-05
5.95987e-05
0.000149169
4.39016e-05
3.83356e-05
-1.00759e-05
6.97708e-05
-5.98882e-05
5.34232e-05
6.86804e-05
8.57909e-05
6.81025e-05
0.000137439
0.000106096
-2.40523e-05
0.000111081
-0.000131281
0.000102691
9.90946e-05
-5.28732e-05
-3.79214e-05
8.6974e-05
0.000114877
0.000176992
3.40523e-05
7.95295e-05
5.6745e-05
-3.69134e-05
-1.51402e-05
8.69033e-05
6.86067e-05
6.22787e-06
4.16543e-05
2.36372e-05
2.60693e-05
0.000121307
-3.55702e-05
-2.05772e-05
2.75006e-05
5.94514e-05
8.97923e-06
1.84992e-05
8.66939e-05
-5.82665e-05
-3.07569e-07
2.659e-05
-1.44093e-05
-2.21959e-05
-3.95463e-05
0.000128655
-4.29619e-06
2.10481e-05
-3.8513e-05
0.000102293
2.14378e-05
2.40528e-05
4.18614e-05
-0.0001049
2.47044e-05
-6.30287e-05
-2.51193e-05
-2.38867e-05
5.12261e-05
-2.60443e-05
-7.5764e-05
4.98934e-05
-6.6046e-05
-4.29007e-05
2.33413e-05
-5.99083e-05
-8.0273e-05
3.00235e-06
-4.24262e-05
4.6622e-06
1.08915e-05
-2.15753e-05
-4.06068e-06
-5.82078e-05
-6.74939e-05
-0.000106138
-1.79196e-05
-2.0046e-05
-5.72717e-05
-2.52764e-05
7.73056e-06
-3.07405e-05
-8.5387e-05
-3.5389e-05
-8.3613e-06
2.74418e-05
-7.9568e-05
-6.67487e-05
2.31331e-05
-0.000103178
-3.37882e-05
1.98346e-05
-8.2033e-05
-5.15868e-05
-4.38411e-05
8.67294e-06
3.55996e-05
-2.47126e-05
4.87419e-06
-0.000112384
-3.15174e-05
3.88796e-05
-3.39416e-05
-6.56132e-05
-4.11926e-05
-3.17374e-05
2.9823e-05
-2.8532e-05
-3.54563e-05
-2.3486e-05
-0.00011611
1.48102e-05
-3.37933e-05
4.56304e-05
-5.12688e-05
-5.72852e-05
-3.73458e-05
-3.01474e-05
-6.05672e-05
-1.00287e-05
-7.96339e-05
-0.000109192
1.21043e-05
-4.39815e-05
9.01741e-06
-1.84353e-05
1.72418e-05
-5.13535e-05
-1.04342e-05
4.761e-05
-2.54947e-05
5.74088e-05
2.163e-07
-3.24124e-05
-5.0445e-05
-8.2256e-05
2.8483e-05
2.44656e-05
-6.16948e-05
-0.000158637
-4.16988e-05
-6.54254e-08
-1.69137e-05
8.77341e-06
5.33127e-05
3.15614e-06
-1.07941e-05
2.47143e-05
-5.96535e-06
3.43223e-05
-2.73114e-05
-6.8472e-06
-1.89466e-06
-4.36436e-05
-0.000106617
-3.96516e-05
-2.96772e-05
-3.55601e-05
1.64218e-05
-5.91247e-05
-4.27185e-05
-1.06741e-06
-6.00028e-06
5.4352e-05
-3.5424e-05
-7.13799e-05
-7.13193e-05
4.017e-05
1.15474e-05
-5.23515e-05
-1.11545e-05
9.64606e-06
3.1899e-05
-8.57752e-05
1.39617e-05
-6.13799e-05
-7.74185e-06
-3.48629e-05
-1.67098e-05
-4.55657e-05
-6.96026e-05
1.70248e-05
-4.881e-05
-2.07967e-05
1.59816e-05
-1.05533e-05
-2.35445e-05
-1.24412e-05
-3.31047e-05
-4.60122e-05
-1.33582e-05
-4.22455e-05
-8.323e-06
-5.9447e-05
-7.82581e-05
8.69692e-06
-2.01969e-06
-8.38249e-05
1.05486e-05
-3.22356e-05
-4.3676e-05
-0.000117682
-8.72556e-06
-3.99577e-05
-3.83069e-05
-7.16741e-05
9.3705e-06
3.00055e-05
-1.70409e-05
-2.39996e-05
-1.85601e-06
-5.11223e-05
-2.02559e-05
-8.13482e-05
-6.40944e-05
3.62427e-05
-8.02709e-05
-7.56327e-06
2.37464e-05
2.21166e-05
-5.27815e-05
-2.42516e-06
3.60705e-05
-9.46561e-05
1.02371e-05
-2.21475e-05
3.97037e-05
-4.13512e-05
-2.5548e-05
-5.70039e-06
3.04063e-05
-6.90697e-05
-4.77678e-05
3.67507e-05
-4.79689e-06
2.05939e-06
-4.86569e-05
-0.000107547
-6.60245e-05
-2.66009e-05
-2.24798e-05
-9.32952e-06
-1.88572e-05
-0.00010145
6.32252e-06
3.69585e-05
4.61051e-06
-1.0849e-05
-2.36549e-05
-8.5084e-05
-3.90904e-05
4.81105e-05
-6.97793e-06
-7.51887e-05
-6.46276e-05
-4.37901e-05
3.07562e-05
-5.53511e-05
1.83075e-06
-5.12168e-05
9.71672e-05
1.1798e-05
-4.1407e-05
-5.22411e-05
-4.83997e-05
-4.73993e-05
3.2125e-05
-3.50833e-05
-7.29869e-05
1.69803e-06
-2.53879e-05
-1.98886e-05
4.50527e-06
-1.73204e-05
7.05676e-05
5.70887e-05
-6.70666e-05
-3.48978e-05
-2.73384e-05
-7.02045e-05
-2.06068e-05
2.42679e-05
8.58866e-05
-8.7035e-05
6.93474e-06
-4.34534e-05
-3.627e-05
6.90328e-05
3.75882e-05
-6.27588e-05
-4.99142e-06
2.55416e-05
-5.11215e-05
2.26249e-05
-1.34835e-05
-4.80207e-05
-1.9824e-05
3.05497e-06
3.73246e-05
3.42678e-05
-1.23486e-05
-2.31673e-05
-0.000132199
-1.66474e-07
-7.60658e-06
5.12579e-05
-7.35326e-06
-7.36315e-05
5.01692e-06
-3.30426e-05
-1.99093e-06
5.00253e-05
-7.79796e-06
-2.33898e-05
-8.48062e-06
1.05437e-06
-1.92297e-05
7.13236e-05
-5.15233e-05
7.82195e-06
3.11633e-05
6.53435e-05
-4.67905e-05
-2.90638e-05
-1.1491e-05
-2.49569e-05
-9.34282e-05
-2.04823e-05
3.51586e-05
4.88631e-05
3.64084e-05
-1.64531e-05
3.77697e-05
6.14576e-05
-4.75246e-05
4.4845e-05
4.40085e-05
9.82289e-06
-5.10864e-05
1.23072e-05
2.34436e-05
7.04306e-05
4.9668e-05
-3.57148e-05
2.25285e-05
5.27373e-06
-2.51164e-05
4.80092e-05
3.40397e-05
2.11627e-05
-2.89192e-05
-7.34258e-05
2.16749e-05
3.48728e-05
1.4212e-06
-4.63352e-05
1.81748e-06
-1.65713e-05
5.22439e-05
1.92713e-05
-4.25105e-05
-9.05943e-05
6.88457e-06
2.94284e-05
9.4329e-06
3.90757e-05
-4.01763e-05
2.79775e-05
-3.30708e-05
9.02761e-05
1.87053e-05
2.19361e-05
-2.38947e-05
3.89216e-05
7.95065e-05
-1.43051e-06
-1.07865e-05
-4.31226e-05
-5.6342e-05
3.65556e-05
5.69131e-06
-2.97659e-05
3.18502e-05
-3.75105e-05
-1.97692e-05
6.36957e-05
5.06412e-05
-4.8059e-05
-4.18767e-05
-9.31276e-06
-2.63558e-05
-1.33658e-05
5.09447e-05
7.4107e-05
-1.38807e-05
-5.52128e-05
-6.02391e-05
2.25467e-05
4.01651e-05
-3.56468e-05
4.60856e-05
6.0403e-05
1.00422e-05
-2.72851e-05
-6.84018e-05
1.03846e-05
-3.90658e-05
-6.67314e-05
1.89326e-05
-3.8665e-05
-7.26085e-05
1.55339e-05
3.4466e-05
-9.18214e-06
-2.52386e-05
3.4999e-05
6.71941e-05
-7.81449e-06
-2.34852e-05
1.90871e-05
-3.45565e-05
-3.24671e-06
3.17618e-05
-4.3362e-05
-4.44562e-05
-1.29163e-05
6.19071e-05
-1.54725e-05
-1.92425e-05
-9.33418e-07
1.07801e-05
-2.67865e-05
6.43283e-05
6.27944e-07
3.16112e-05
-3.45437e-05
-2.02109e-05
3.29815e-05
-8.92964e-06
-5.33777e-05
-6.58383e-05
-1.97741e-05
2.38302e-06
3.65474e-05
8.36782e-06
-1.87778e-06
1.4829e-05
-2.75736e-05
4.24774e-05
2.79527e-05
9.69109e-05
6.65829e-05
1.94261e-05
1.45667e-05
-1.36639e-05
5.90176e-05
5.77697e-05
-3.53305e-05
8.65562e-05
-1.88485e-05
-2.1022e-05
-5.3937e-05
1.12336e-05
-1.22986e-05
7.03163e-05
-1.07873e-05
6.14906e-06
5.77937e-05
3.47518e-05
-3.56395e-05
-5.85627e-06
4.38271e-05
2.99949e-05
1.48878e-05
3.09409e-06
-6.29968e-05
1.44143e-05
-9.3447e-05
4.10877e-05
-3.34163e-05
-7.2972e-05
6.78643e-06
-4.31375e-05
3.26068e-05
-5.40696e-05
-3.51891e-05
-7.38085e-06
-3.46785e-05
7.78132e-06
5.28592e-05
1.66991e-05
-1.61526e-06
7.61894e-05
-2.8963e-06
5.27898e-05
3.30997e-05
2.69057e-05
3.20115e-05
-4.14017e-05
-7.91213e-05
6.70389e-06
-3.71061e-05
3.38769e-07
3.1288e-05
2.55896e-05
4.62425e-05
-7.34464e-06
3.85565e-05
-1.82483e-05
8.60395e-05
-3.51761e-05
-2.4211e-05
-2.44781e-05
3.96885e-05
3.96364e-05
-5.59585e-06
-1.59821e-05
5.26492e-05
-3.12823e-05
-9.51334e-06
1.32087e-05
3.0308e-05
4.01442e-05
-6.21304e-05
6.55791e-06
-4.02805e-05
7.68165e-05
-2.30572e-05
2.42714e-06
-2.36237e-05
-7.65722e-06
1.05565e-06
-7.58456e-05
1.89049e-05
4.24926e-05
2.73343e-06
-4.68807e-05
-0.000111356
2.32976e-05
1.92826e-05
1.66974e-06
4.11416e-05
-1.26257e-05
3.11446e-06
-2.15395e-05
-7.41893e-05
3.57799e-05
1.81668e-05
-4.43205e-05
1.38059e-05
2.49417e-05
-1.40065e-05
-5.45263e-05
-1.59671e-05
4.84828e-05
-4.49992e-06
-0.000139602
5.79737e-05
3.08063e-05
0.000100899
-3.72753e-05
3.82717e-05
1.96729e-05
-2.19456e-05
-3.16997e-05
-3.15025e-05
5.7979e-05
8.84751e-05
-9.06701e-06
-5.99885e-05
9.21835e-06
8.46398e-06
-1.80444e-08
-2.07854e-05
-3.9037e-05
0.000130274
-3.43218e-05
-4.70516e-05
5.37115e-05
-2.79665e-06
2.82261e-06
-3.79189e-05
-6.0541e-05
4.75423e-05
4.84362e-05
-1.75377e-05
3.74636e-05
-5.19096e-05
4.18173e-05
3.39501e-05
-6.99728e-05
2.73662e-05
3.88058e-05
1.6781e-05
-5.26783e-05
6.28692e-05
-2.19622e-05
-4.31014e-05
-7.40332e-06
-2.6679e-05
4.25468e-05
3.64985e-06
2.75731e-05
-4.73876e-05
-6.43684e-06
3.03097e-05
-2.263e-05
-8.19346e-05
-4.95824e-05
1.36236e-05
3.3636e-05
4.5352e-05
-3.78178e-05
6.72052e-05
-2.0206e-05
-6.23032e-05
4.74699e-05
4.62764e-05
1.24057e-05
3.82882e-05
2.1503e-05
5.87148e-05
-6.49999e-05
-4.25663e-05
-1.34123e-05
4.39058e-05
4.78699e-05
-2.23201e-05
-6.05178e-05
1.98314e-06
-2.43704e-06
-3.00118e-05
1.48921e-05
2.92049e-05
7.28872e-05
7.06636e-05
-3.58252e-05
-0.000140627
2.58456e-05
1.20373e-06
-2.88254e-05
-4.69701e-05
5.7242e-05
3.12584e-05
1.75566e-05
-0.000107817
-1.58474e-05
1.13324e-05
3.99521e-05
3.28134e-05
-4.30102e-05
3.20361e-05
3.74878e-05
-3.91933e-05
2.83307e-05
3.71943e-05
-1.37136e-05
3.56362e-05
-5.44164e-05
8.30449e-05
3.03239e-05
-1.94276e-05
-2.67298e-05
6.84275e-05
4.12179e-05
-2.91597e-05
3.35342e-05
3.92137e-05
3.6837e-05
-3.48368e-05
-2.81512e-05
1.41675e-05
3.52949e-05
-7.15667e-05
-2.16159e-05
4.60051e-05
3.64996e-05
2.31863e-05
-3.12361e-05
-7.13486e-05
2.25481e-05
-3.52724e-05
7.69857e-05
-4.1643e-05
-1.3786e-05
7.45145e-05
-5.40668e-05
4.00445e-06
-1.77849e-05
-5.58048e-05
2.01226e-05
5.95977e-06
5.05823e-05
6.31156e-05
-6.58255e-05
8.14187e-05
-4.32243e-05
-2.44335e-05
2.67201e-05
4.39433e-06
9.56829e-06
7.65512e-06
4.39049e-06
-4.2216e-05
2.17031e-05
1.01279e-05
-1.56355e-05
-7.88146e-05
-2.79713e-05
-7.33137e-06
2.62831e-05
6.2288e-06
2.38398e-05
-8.04116e-06
5.2616e-05
3.00962e-05
-3.07957e-05
-8.6859e-05
1.14746e-05
3.87336e-05
1.11605e-05
-2.85618e-05
-9.12522e-06
-2.48104e-06
2.21188e-05
-3.22959e-06
2.53444e-05
2.25466e-05
3.2097e-05
-2.08742e-05
-3.06289e-06
6.05523e-06
-3.41376e-06
3.49665e-05
-2.44871e-05
5.3474e-05
1.9663e-05
1.27887e-05
-1.15689e-05
2.92526e-05
2.87127e-06
3.39586e-05
-1.87162e-05
-2.88605e-06
-6.90415e-05
2.46684e-05
-5.03904e-06
-1.26836e-05
2.05977e-05
-2.63394e-05
-2.6616e-06
-3.02473e-05
-7.38936e-05
-1.16549e-05
0.000124286
-9.67175e-05
2.30565e-05
4.08877e-05
1.12078e-05
1.89696e-05
2.29748e-05
-6.50401e-05
-1.8556e-05
-3.5894e-05
9.88808e-06
-2.25084e-05
-0.00011462
5.06439e-05
-0.000120174
-5.21548e-05
0.000129995
-2.85541e-05
-3.29316e-05
1.39807e-05
-3.08792e-06
-4.5842e-06
-6.87176e-05
5.00819e-07
2.54065e-05
-3.06809e-05
-4.83696e-05
-2.09833e-05
3.77458e-05
3.99078e-05
1.09908e-05
-3.37755e-05
2.43066e-05
4.91925e-05
4.58604e-05
-7.1392e-05
-6.57423e-05
-4.48679e-05
5.14658e-05
2.45078e-06
-1.54704e-06
-6.96708e-05
3.42145e-07
-1.04237e-05
6.89423e-06
-2.29038e-05
-2.35473e-06
-3.06214e-05
3.27416e-05
-3.22692e-06
-1.03372e-05
-2.52565e-05
2.84621e-05
9.52237e-05
-3.02615e-05
3.21708e-05
4.43815e-05
-4.54086e-05
-0.000101102
-3.30776e-05
0.000111009
6.25447e-05
-5.28276e-05
-0.000107186
-1.18129e-05
6.8567e-05
3.46117e-05
-5.40467e-05
-5.21376e-05
4.75177e-05
-4.06372e-05
-0.000119435
6.1203e-05
-1.81564e-05
-3.11729e-05
0.000105493
-4.54735e-05
-9.29435e-05
-5.38452e-05
9.50554e-06
-5.54988e-05
1.67228e-05
4.28176e-06
-7.23695e-05
6.5238e-06
4.59249e-05
6.77793e-06
-2.06719e-06
5.32218e-05
2.83382e-05
-3.75981e-05
-4.85507e-05
0.000104194
-1.62806e-05
-5.72752e-06
-2.97001e-05
-2.67266e-06
-4.5812e-05
8.22789e-06
-1.31112e-05
-4.38883e-05
-3.3671e-05
-5.49548e-05
4.80603e-05
-3.43906e-05
5.50933e-05
-3.26773e-05
-2.49944e-05
-9.60927e-06
3.26965e-05
-4.34384e-05
8.21743e-05
3.99072e-06
1.01075e-05
-2.6417e-05
-1.68476e-06
5.18312e-05
-5.0524e-05
7.65342e-05
-2.69972e-05
-2.84485e-05
5.25324e-06
1.91289e-05
5.75269e-05
-1.5507e-05
1.41477e-05
1.54794e-05
9.67546e-05
-2.60591e-05
2.79793e-06
-6.86487e-05
-4.36394e-06
5.35569e-06
-6.22473e-07
-1.12269e-05
2.76116e-05
-7.06457e-05
2.38861e-05
3.6464e-05
-5.8607e-06
-1.47321e-05
5.85358e-05
-1.46346e-06
5.05242e-07
-8.36351e-06
-6.68819e-05
-7.4585e-06
-5.66774e-05
5.49145e-05
-1.55683e-05
-6.51171e-05
1.93971e-05
-2.50093e-05
1.49548e-05
4.44492e-05
-8.879e-06
-5.64916e-05
-7.07048e-05
-8.34127e-06
-2.96301e-05
-2.15322e-06
-1.83217e-05
-1.89303e-06
-0.000102778
8.74838e-06
3.2482e-05
3.07967e-05
-0.000103662
-3.61558e-05
2.02418e-05
8.3911e-05
4.75312e-06
-1.31459e-05
3.19694e-05
7.15023e-07
-3.7137e-05
-7.51377e-05
-6.92114e-05
-2.21282e-06
-7.09705e-05
1.36707e-06
-4.37517e-05
5.21009e-05
-3.20335e-05
-2.11219e-05
9.38261e-06
-1.06066e-06
4.85138e-06
-2.593e-05
5.72978e-05
-2.03844e-05
4.02202e-05
1.71219e-05
-4.3611e-05
4.79119e-06
-4.09898e-05
-3.48547e-07
2.30942e-05
-3.31625e-05
1.34482e-05
1.23588e-05
-2.6104e-05
-4.6381e-05
1.17682e-05
-4.40207e-05
0.000100773
4.16171e-05
5.95755e-05
5.72717e-06
3.63565e-06
3.72176e-05
-2.83869e-05
-2.65329e-05
-3.87034e-05
-3.3244e-05
-2.94554e-06
-4.8338e-06
-7.42383e-05
-9.21184e-05
-4.12925e-05
9.36047e-05
1.79685e-05
2.4614e-05
5.07904e-05
-3.90919e-05
-4.86939e-05
-6.07768e-05
2.9187e-05
-7.01523e-05
2.39774e-05
5.71003e-05
1.43815e-05
-8.54445e-05
6.48922e-05
5.64125e-06
1.15011e-05
-0.000120717
5.33736e-05
7.36077e-05
5.39154e-06
1.38734e-05
1.18411e-05
-9.65165e-06
3.66959e-05
-3.03435e-05
4.7182e-05
6.17243e-05
-4.68036e-06
-4.04327e-05
-2.98402e-05
4.8345e-06
-1.19186e-06
4.36946e-05
-1.84926e-06
-1.1377e-05
-1.70611e-05
7.8248e-05
-4.5835e-06
1.79138e-05
-3.62855e-05
-7.78635e-05
7.38347e-05
-9.19307e-05
-5.20807e-06
2.09288e-05
2.30595e-06
7.05895e-05
3.83813e-05
7.42078e-06
5.50145e-05
-1.0145e-05
4.60942e-05
-1.6838e-05
-5.88745e-05
-4.91894e-05
5.14219e-05
5.45882e-05
-1.98532e-05
5.8101e-05
3.02008e-05
1.38807e-05
2.24968e-05
6.25569e-05
6.90203e-06
-8.80084e-05
-1.34255e-05
-5.00749e-06
4.87e-05
5.99247e-05
6.30912e-05
1.42632e-06
2.14423e-05
-2.66379e-05
-9.90392e-06
-6.22049e-05
-1.60279e-05
3.25949e-05
-3.8536e-05
-1.90415e-05
5.31542e-05
-2.28166e-05
1.54098e-05
-4.23559e-05
-5.64614e-07
-5.11482e-05
-1.07909e-05
-0.000114607
2.06345e-05
1.91701e-05
7.28536e-05
2.73268e-05
-4.94907e-05
5.05775e-05
5.27868e-05
6.41989e-05
-7.99051e-06
4.43968e-05
-4.86518e-05
-2.58869e-05
-3.12888e-05
9.76645e-05
-4.46024e-05
-4.87095e-05
2.70447e-05
-5.04584e-05
1.36552e-05
-9.01837e-05
-0.000131355
6.04797e-05
5.67493e-05
-1.70096e-05
2.47725e-05
-9.10833e-06
5.16699e-05
-8.06585e-05
3.82914e-05
3.78347e-05
1.59071e-05
-7.97631e-06
-6.655e-06
3.57419e-05
3.13774e-05
-9.32618e-05
-4.72958e-05
-9.38079e-05
-4.97692e-05
6.84743e-05
-3.5439e-05
9.14512e-06
-3.66231e-05
3.87211e-05
1.69341e-05
4.47605e-05
-5.405e-05
2.94941e-05
6.61314e-05
1.22401e-05
-6.64291e-05
1.13365e-06
1.48169e-05
-1.36932e-05
6.0895e-05
-9.09087e-07
7.89306e-05
9.09716e-06
5.26162e-05
-9.66365e-05
3.41132e-05
6.60541e-06
-1.27825e-05
-4.43453e-05
-2.06705e-05
3.1509e-06
-9.30391e-07
-6.30609e-05
-0.000100799
-4.15872e-05
-9.15083e-05
-4.81864e-05
5.62918e-05
-1.52456e-05
-5.22905e-05
-2.41196e-05
-1.08297e-05
-4.57694e-05
-4.23094e-05
1.19056e-05
2.83613e-05
-1.41367e-05
-5.28246e-05
-6.13481e-05
1.77327e-05
1.07326e-05
-2.08279e-05
5.96301e-05
1.7907e-06
2.512e-05
-2.36356e-05
5.88675e-05
3.18961e-05
4.76103e-05
-7.31889e-05
7.22473e-05
-0.000100921
-6.24149e-06
6.49316e-05
8.48947e-06
3.23071e-05
-3.30689e-06
-4.32207e-05
2.37802e-06
1.99968e-05
-1.27287e-05
9.59379e-06
3.61399e-05
2.75427e-05
6.92137e-05
-2.72377e-06
-6.32236e-05
-6.14545e-06
-7.61065e-06
-1.02114e-05
4.45035e-05
5.2012e-06
2.67308e-05
-6.6295e-06
-4.79817e-06
-2.94803e-05
1.43552e-05
5.68945e-06
6.792e-05
9.01218e-06
3.43912e-05
1.84244e-05
1.29039e-05
-4.46518e-05
3.45933e-05
3.36546e-05
1.93808e-06
-1.88092e-05
4.46875e-05
-5.23891e-05
6.75365e-05
7.74651e-05
6.37176e-06
8.13847e-05
-3.18106e-05
2.20668e-05
-1.73557e-05
-2.87805e-05
-6.86576e-05
1.19234e-05
2.47911e-05
1.23705e-05
-3.48676e-05
2.16779e-05
-2.2075e-05
-3.52541e-06
1.23347e-05
1.70921e-06
2.97123e-05
-6.88562e-05
-1.33736e-05
9.18963e-05
-3.43509e-05
1.47279e-05
-1.23637e-05
4.94566e-05
2.42062e-05
-4.44681e-05
5.05936e-05
0.000106778
9.66929e-05
6.52506e-05
8.89413e-07
-7.20681e-06
-1.14567e-05
6.669e-05
-5.44824e-06
4.01796e-05
-2.33978e-05
4.17557e-05
-3.41277e-05
-2.13975e-05
6.28061e-06
-2.62642e-05
3.58209e-05
-8.93143e-05
4.69465e-05
-3.57552e-05
3.30252e-05
2.3464e-05
-9.97115e-05
2.21338e-05
3.57017e-05
-1.87468e-05
2.13267e-05
-6.78241e-05
2.71619e-05
-5.16979e-05
5.68142e-05
4.88441e-05
-1.74806e-05
3.80408e-05
4.54169e-05
1.17879e-05
-8.37946e-06
2.07496e-05
-2.05644e-05
5.28255e-05
-7.5706e-05
-4.26271e-05
-7.67235e-06
2.04984e-05
-1.54357e-05
-3.12326e-05
1.17399e-05
6.21652e-05
4.88076e-05
4.33624e-06
-0.000127571
-5.02237e-05
-6.86675e-05
-6.60999e-05
3.09129e-05
7.61505e-05
-7.01353e-05
-7.03009e-06
9.28505e-06
4.82404e-05
3.83938e-06
8.47317e-06
-6.75758e-05
-1.85835e-05
1.21738e-05
-8.66794e-06
-3.19518e-05
-1.42835e-05
3.18384e-06
7.33056e-06
1.8241e-05
2.56518e-05
-6.78835e-05
-4.71401e-06
3.49286e-05
-5.05325e-05
1.0794e-05
-1.50148e-05
-1.63049e-05
-2.95392e-05
9.53892e-05
2.63902e-05
-1.76693e-05
-2.15023e-05
-1.27989e-05
8.03312e-06
-1.35811e-05
2.63907e-05
-7.18562e-06
-1.90844e-05
2.17275e-05
5.39329e-05
-9.03429e-05
5.79043e-05
-1.44775e-05
-1.46056e-05
-3.83228e-05
-4.54379e-05
2.61624e-05
5.74823e-05
2.07163e-05
1.80581e-05
2.61943e-05
-7.22148e-06
-2.65969e-05
2.38706e-05
-3.81796e-05
-3.29993e-05
2.86615e-05
4.19584e-06
5.3414e-05
-1.29021e-05
-4.54602e-06
9.10498e-05
1.63319e-05
1.69142e-05
-4.63272e-05
3.55742e-05
-3.91714e-05
2.29457e-05
1.72227e-05
3.08605e-06
6.80587e-05
6.72806e-05
-1.70233e-05
-7.54721e-06
4.55858e-05
-1.23875e-05
-6.61286e-06
0.000122597
3.26277e-05
1.82129e-05
2.49494e-05
-5.22537e-05
-2.22391e-05
-5.70167e-05
1.30443e-06
7.6904e-06
2.41783e-05
1.07716e-05
-5.20681e-05
1.76701e-05
6.44934e-05
-6.1188e-05
5.44069e-05
-4.49326e-05
-7.05206e-05
6.23101e-06
3.27916e-05
4.70879e-05
1.32725e-06
1.32956e-05
-7.78602e-05
-2.81835e-05
-6.89249e-06
0.000112601
3.68479e-05
-3.34257e-05
4.8563e-05
3.18344e-05
1.14887e-05
6.94903e-05
0.00013327
-7.3859e-05
-4.20371e-05
-1.68964e-05
2.04111e-05
8.13347e-06
-1.95545e-05
3.47549e-05
5.05911e-05
-6.30402e-05
-4.22691e-05
1.79632e-05
5.70349e-05
-6.6706e-07
2.83981e-05
-3.47802e-05
-8.23166e-05
-3.16933e-05
-5.51024e-05
-1.6948e-05
6.44e-05
-5.57769e-05
5.25212e-05
-0.000112341
-7.1065e-05
-1.52236e-05
-1.60271e-05
-3.59303e-05
5.28322e-05
4.40279e-05
-4.75522e-06
-6.05787e-05
-2.03254e-05
1.72127e-05
2.40917e-05
-2.15e-05
-3.80279e-05
1.84205e-05
-5.22975e-05
-1.4804e-05
-9.04261e-05
-1.86135e-05
-1.40988e-05
0.000121307
-2.54698e-05
5.25201e-05
3.79472e-05
3.11936e-05
-3.8531e-05
-5.10225e-06
-4.4966e-05
2.62954e-05
1.12434e-05
-1.86054e-05
1.74427e-05
-3.76216e-05
8.71113e-06
-3.17951e-05
7.14652e-05
-7.47021e-05
0.000101809
5.19647e-05
3.18054e-05
1.94155e-05
4.63659e-05
-3.00456e-06
1.62404e-05
7.99996e-05
3.6757e-06
-1.37995e-05
-5.21087e-05
-5.62189e-05
2.68222e-05
-3.78018e-05
-4.78232e-05
2.88631e-05
-2.68989e-05
-1.16546e-05
-5.02805e-05
3.1076e-05
-2.00595e-05
3.81088e-05
-8.71741e-05
-4.69049e-05
1.67189e-05
4.92436e-05
9.12847e-06
1.4262e-06
-6.69422e-05
-7.27298e-05
-1.43615e-05
-9.74513e-06
-1.5698e-05
2.67377e-05
-9.21227e-05
-5.88647e-05
-1.25875e-05
5.10601e-05
-8.97495e-05
7.86014e-05
1.30894e-05
1.51686e-05
-0.000114673
-4.1971e-05
1.0648e-05
8.84156e-05
-6.75349e-06
-6.93079e-06
1.08082e-05
-9.15198e-05
-1.49584e-05
1.07789e-05
5.18088e-05
-3.28285e-05
4.2594e-05
9.43081e-06
7.85454e-07
4.03611e-05
-3.83472e-06
2.66726e-05
-2.21877e-05
6.11297e-07
2.16416e-06
1.8309e-05
-2.01634e-05
-7.52344e-05
-8.20153e-05
-4.08831e-05
3.06882e-05
3.11451e-05
-1.76032e-05
-1.14897e-05
3.87499e-05
9.27434e-06
1.17531e-05
-4.44879e-05
-5.27482e-05
-4.26527e-05
9.6072e-05
-3.91067e-05
-6.17568e-05
-4.51246e-05
4.72029e-06
-4.15777e-05
-1.74763e-06
2.57661e-05
4.8114e-05
-3.50766e-05
2.89144e-05
3.42631e-05
2.19489e-05
-2.03149e-05
-2.84292e-05
2.95846e-05
6.2326e-05
1.81491e-05
-1.77093e-05
-4.22898e-05
-3.5183e-06
6.32221e-05
3.54741e-06
7.63196e-06
-5.29387e-06
1.01699e-05
2.74981e-05
2.91362e-05
-2.6076e-05
-5.974e-05
8.67882e-05
3.29316e-05
-1.45723e-05
-1.42368e-05
5.72901e-05
3.84287e-06
9.81889e-05
0.000121367
-2.85938e-05
2.49981e-05
7.87165e-06
-1.86714e-05
-1.70153e-05
-7.32372e-05
0.00011208
-1.25973e-05
-6.01786e-05
7.86199e-06
3.08841e-05
9.78354e-06
7.84162e-06
1.71359e-05
4.90109e-08
-2.67223e-05
-2.56812e-05
-4.13369e-05
-4.55834e-05
-1.76241e-05
-7.76548e-06
-4.82694e-05
7.13973e-05
1.64242e-05
3.01735e-05
-3.19601e-05
1.39843e-05
-1.39402e-05
-1.55891e-05
4.47617e-06
-1.65859e-05
8.27654e-05
5.56016e-05
5.67269e-06
3.54113e-05
2.86219e-06
-1.63054e-05
2.07493e-05
9.6329e-06
-1.45014e-05
-4.88881e-05
-4.07486e-05
-9.69181e-06
4.12577e-05
-2.15801e-05
-3.41528e-05
5.64966e-05
-1.37312e-05
-5.04197e-05
3.84743e-05
-2.33633e-05
-1.19617e-06
-5.94469e-05
5.95278e-06
6.40074e-05
-7.3972e-05
-2.23714e-05
-4.28886e-06
-7.43156e-05
-1.58098e-05
5.60062e-05
-2.41019e-05
5.20144e-05
4.58728e-05
-3.16426e-05
0.000122277
2.89965e-05
1.20704e-05
-2.74091e-05
-3.44682e-05
-3.20196e-05
5.98463e-05
4.27902e-05
-2.54266e-05
-1.62855e-05
4.25265e-05
4.55984e-05
-7.08059e-05
-4.5384e-05
-1.75915e-05
6.00136e-05
3.70806e-05
4.36972e-05
-7.64511e-06
2.17548e-05
1.48435e-05
1.47809e-05
3.49522e-05
1.44984e-05
-7.17351e-05
5.90791e-05
3.93525e-05
-1.62122e-05
4.7453e-05
-1.84559e-05
-3.84231e-05
8.46089e-05
5.78986e-05
5.29932e-05
-2.82943e-05
-1.40264e-05
-3.38175e-06
6.56868e-05
1.7016e-05
1.81664e-05
-1.45182e-05
-3.22154e-05
8.30181e-06
5.70648e-05
3.72091e-05
6.89621e-05
3.92871e-05
3.07857e-05
-1.59349e-05
4.17498e-05
8.47317e-06
-3.21827e-05
-1.0755e-05
-1.45925e-05
5.39315e-05
1.21888e-05
2.11238e-05
-2.64747e-05
1.12987e-05
-2.3908e-05
-1.44514e-05
1.09985e-05
-7.73557e-06
4.69014e-06
1.68593e-05
6.6706e-05
1.5799e-05
-0.00010758
-8.24992e-05
6.52368e-06
-5.85077e-05
5.17319e-05
1.84861e-05
1.66775e-05
-7.07679e-05
5.68538e-06
-1.86225e-05
-4.33436e-05
5.83283e-05
-4.15361e-05
-7.76738e-05
-1.33209e-05
-3.74749e-05
-1.09966e-06
5.0631e-05
3.43453e-05
5.21401e-05
2.95314e-05
4.71438e-05
-2.02374e-05
0.000134813
5.51661e-05
-3.82706e-05
-1.12213e-05
0.000111733
1.12841e-06
-1.3834e-05
-2.07329e-05
-1.0534e-05
5.75115e-06
2.51085e-05
-6.47182e-05
1.22271e-06
0.000118249
2.02314e-05
-6.96785e-05
-8.3458e-05
9.06894e-05
4.29546e-05
-6.09944e-05
-2.33599e-06
4.52413e-06
-2.48621e-05
-7.49842e-05
-6.30133e-06
3.39788e-05
6.28869e-05
-2.65916e-06
-2.97546e-05
-6.67733e-05
-1.08314e-05
7.42369e-06
3.03183e-05
-1.26916e-05
1.26486e-05
-3.24745e-05
-1.54036e-05
4.65967e-05
-6.06757e-07
-7.3323e-05
-3.61174e-05
3.19347e-05
5.07119e-05
5.52055e-05
-3.86611e-05
-2.71015e-05
-1.73191e-06
4.00438e-05
-1.28826e-05
1.15244e-05
2.75385e-05
1.51e-05
2.02358e-05
3.27822e-05
-0.000103584
-2.37207e-05
5.62993e-05
-3.56057e-05
-8.56416e-05
0.000101618
-2.90697e-05
2.15791e-05
-5.19507e-05
6.29318e-06
-5.95584e-05
3.80236e-06
-4.01158e-05
2.21789e-05
-9.73826e-06
6.35826e-05
-2.76122e-05
-2.54388e-05
9.06728e-05
-5.55894e-05
-3.51437e-05
1.47808e-05
-2.30941e-05
3.46851e-05
-4.1014e-05
-1.09316e-05
2.98406e-05
3.45649e-05
-4.78459e-05
-5.78745e-05
-3.72988e-05
3.5862e-05
-1.02359e-05
-1.76758e-05
3.83474e-05
4.55114e-06
-3.07262e-05
-6.31749e-05
6.19108e-06
-5.68883e-05
0.000120349
-0.000117728
-6.80874e-05
1.01872e-05
-1.0216e-05
2.8216e-05
-1.96024e-05
-6.25558e-06
3.5075e-05
9.93151e-06
-5.96485e-05
5.40577e-05
-2.97574e-05
-7.26315e-07
-9.39076e-06
-2.64796e-05
5.89008e-05
9.35843e-05
7.95012e-05
-1.68921e-05
-6.82937e-05
-7.77036e-05
4.75628e-05
-1.31805e-06
1.17447e-05
5.16311e-05
-6.31509e-05
2.21423e-05
3.45723e-05
-3.89616e-05
4.92728e-05
9.85339e-06
-2.73688e-05
-7.1801e-05
-2.20723e-06
9.41264e-06
5.68595e-05
-2.01397e-05
-8.62207e-06
7.09016e-06
9.574e-07
-2.91977e-05
-3.67722e-05
9.87202e-07
-7.08306e-06
-7.77075e-05
4.07123e-05
2.28044e-05
-2.33533e-05
-2.82732e-05
6.35569e-06
-3.10611e-05
-2.37784e-05
5.87652e-05
3.77758e-05
-8.88548e-05
1.88744e-05
2.82153e-05
2.42069e-05
-1.97268e-05
3.13717e-05
2.67723e-05
-2.78917e-05
-1.14409e-05
4.39794e-05
-1.84726e-05
6.28957e-06
-9.41602e-06
3.67076e-05
-1.65381e-05
-2.21904e-05
-3.26346e-05
2.11542e-05
-9.05289e-05
-2.25266e-05
7.17805e-06
-1.67805e-05
-5.12949e-05
-4.15264e-05
3.02576e-05
1.87585e-05
1.34514e-05
6.79976e-05
0.000103677
-2.68696e-05
-5.62215e-05
-7.36909e-06
-8.72894e-06
-8.22125e-06
-0.000119191
3.07661e-05
9.97076e-05
7.93557e-05
2.35244e-05
2.89502e-06
3.23565e-05
6.61891e-06
-1.27403e-05
-1.1237e-05
3.50142e-06
6.08938e-05
-6.73509e-06
5.99334e-05
-9.10752e-06
-4.93443e-05
-1.2501e-05
-1.79212e-05
3.41777e-05
-3.37979e-05
7.3954e-06
5.9454e-05
0.000102923
1.58966e-05
2.07312e-06
6.60839e-05
-5.49527e-05
-6.42199e-05
4.83613e-06
5.86056e-05
-3.53622e-05
-0.000113619
-3.21865e-05
8.25245e-06
3.03728e-05
4.09468e-06
1.2588e-05
-2.57908e-05
4.03018e-06
-1.99424e-05
-0.000115459
-8.30297e-06
2.34317e-05
1.67682e-05
-9.89973e-06
-1.77942e-05
3.41061e-05
5.38378e-05
-8.89529e-07
-3.26858e-05
-1.44825e-05
1.08395e-05
2.86296e-05
1.41956e-05
-1.1322e-05
4.3634e-05
-9.70042e-06
4.36602e-05
-6.25988e-06
-6.49594e-05
8.33404e-05
7.37386e-06
-2.33592e-05
-5.29962e-05
8.21939e-06
-7.67079e-05
-5.47335e-05
1.69983e-05
-2.35286e-05
6.93037e-05
-5.89242e-05
-1.58963e-05
-3.79654e-06
-4.36547e-05
1.75019e-06
6.90948e-06
-1.56339e-05
-1.2681e-05
-6.31344e-06
-2.8747e-05
6.3584e-05
-1.2736e-05
2.98878e-05
-1.94592e-05
0.00010666
-6.87314e-05
2.64286e-06
7.97829e-05
-7.28978e-05
-2.11623e-05
-1.829e-06
-5.65453e-06
-3.07192e-05
-1.66474e-07
6.13101e-05
-4.53609e-05
-3.93705e-06
2.7423e-05
5.10011e-05
6.30203e-06
2.15234e-05
-5.9315e-05
-4.52381e-05
-4.56914e-05
-4.39743e-05
-2.38918e-05
-5.0343e-05
-2.24273e-05
-6.28908e-05
1.11948e-05
0.000117077
1.08844e-05
1.60327e-06
7.11577e-06
-1.24836e-05
-9.79606e-05
1.17279e-05
-2.43351e-05
-6.52868e-05
-4.57343e-05
9.77496e-05
-2.84512e-05
2.46846e-05
2.89713e-05
-3.39512e-05
9.19255e-05
-5.06379e-05
-3.13999e-05
4.17931e-07
2.26258e-05
5.23936e-05
-4.63506e-05
3.01981e-06
-7.25869e-05
3.62424e-05
4.53801e-05
5.10281e-05
4.96123e-05
1.14617e-05
6.31437e-06
1.38573e-05
1.41468e-06
1.35633e-05
-5.94298e-05
-5.2609e-05
-3.14449e-05
3.68989e-05
-1.13016e-06
4.39421e-06
1.65976e-05
1.01093e-05
-4.56738e-05
-5.67071e-05
-2.16055e-05
3.75323e-06
3.02107e-05
2.47175e-05
-3.7056e-05
-4.68162e-05
-8.03266e-05
-3.89202e-05
8.46456e-05
4.35199e-05
1.98978e-05
-8.17562e-06
-6.95745e-06
-5.38762e-05
3.58439e-05
-6.18511e-05
7.9043e-05
-1.59481e-05
-3.99173e-05
-6.26174e-05
3.51222e-05
5.15331e-05
1.97021e-06
-3.4715e-06
-9.94955e-06
5.45717e-05
-4.35942e-05
-3.20037e-05
3.58508e-05
-2.337e-05
-7.19365e-06
3.16268e-05
-2.36789e-05
4.79079e-05
6.11601e-05
-1.50185e-05
5.83354e-05
-1.60113e-05
-5.555e-05
-4.11184e-05
3.92949e-05
8.73668e-05
-9.01893e-06
2.39067e-05
5.31231e-05
-2.11771e-06
3.75921e-05
-6.11142e-05
-5.37819e-05
4.7565e-05
-2.97428e-05
-7.41595e-05
-1.30142e-05
3.8289e-06
-4.95899e-05
-1.00629e-05
1.48064e-05
3.36731e-06
-4.77559e-05
-3.26615e-05
4.77955e-06
4.4096e-05
4.04313e-05
-4.65773e-05
-4.65794e-05
9.95444e-06
6.58095e-05
1.7775e-05
-1.76015e-05
-0.000102062
4.74708e-05
-2.01667e-05
-7.77561e-06
-8.79867e-06
4.50331e-05
-5.59154e-06
-5.70052e-05
-1.93109e-05
-3.39666e-05
4.75904e-05
2.16514e-05
-2.22096e-05
-2.47783e-05
-2.54156e-05
-5.89073e-06
-1.15657e-05
-4.13181e-05
-4.02366e-05
1.20606e-06
-4.48258e-05
2.04253e-05
3.38047e-06
-2.82914e-05
3.01643e-05
9.34862e-06
-6.713e-05
-4.05739e-05
7.09336e-05
-3.39557e-05
-2.67515e-05
2.17736e-05
1.56359e-05
1.44396e-05
-8.90193e-06
-1.19938e-05
1.44325e-05
8.70281e-05
-9.6974e-07
1.24222e-05
-5.59278e-05
-1.92774e-05
3.90811e-05
3.07022e-06
-4.055e-05
7.5663e-06
6.7285e-05
3.94987e-05
-7.4754e-05
-3.48641e-05
2.46887e-05
-5.16152e-05
3.76697e-06
-4.08546e-05
-1.8319e-05
8.32833e-05
-3.53503e-05
-3.56357e-05
-9.10205e-06
-2.37037e-05
-7.61579e-05
-4.31732e-05
-3.44524e-05
3.0332e-05
-5.93204e-05
-4.43421e-05
-1.3848e-05
2.80143e-05
4.43448e-05
7.11239e-06
-4.18862e-07
-3.37958e-05
5.63175e-05
4.62113e-05
-7.51624e-05
0.000106831
-4.85464e-05
-1.38164e-05
-8.41217e-07
-1.47608e-05
-6.57004e-05
-1.55213e-05