# vtk DataFile Version 1.0
Net Charge Density
ASCII
DATASET STRUCTURED_POINTS
DIMENSIONS 256 128 1
ORIGIN 0 0 0
SPACING 0.15625 0.15625 1
POINT_DATA 32768
SCALARS rhonet float
LOOKUP_TABLE default
-3.89607e-06
-9.51278e-05
0.000144792
9.6322e-05
3.56841e-05
0.000120451
-0.000118445
9.18582e-05
0.000154216
2.28992e-05
-3.75607e-05
0.000108725
0.00010382
7.94453e-05
0.000109346
4.99607e-05
8.77437e-05
0.000140235
4.05877e-05
-6.79104e-05
-6.4068e-06
0.000141859
0.000144767
4.77824e-05
3.7268e-05
2.07426e-05
7.74215e-05
9.05892e-05
-1.35218e-05
-7.27423e-05
5.23024e-05
3.97232e-05
4.36692e-05
6.90083e-05
1.24413e-05
0.000171713
1.68071e-05
7.28727e-05
7.73577e-05
-5.53078e-06
2.29318e-05
6.83195e-06
0.000136404
9.39813e-05
2.09387e-05
1.86828e-05
-3.16134e-05
6.95549e-05
0.000116214
7.88723e-05
-1.20072e-05
2.49778e-05
8.34422e-05
0.000148995
3.55951e-05
1.7504e-05
0.000151011
-5.17473e-05
5.67827e-06
7.16954e-05
5.02793e-05
6.06016e-05
7.16804e-06
8.018e-05
8.22489e-05
-8.03831e-05
4.41822e-05
0.000136175
4.09957e-05
4.82837e-05
7.92337e-05
3.67111e-05
-2.69158e-05
4.9667e-05
-1.15018e-07
5.11555e-05
4.20864e-05
-3.83081e-05
9.21622e-05
0.000106615
8.71842e-05
2.54085e-05
7.49615e-05
0.000101106
4.54682e-05
-4.48013e-06
-1.66907e-05
6.70485e-05
0.000119669
-2.34871e-05
9.00031e-05
-1.47952e-05
-3.90529e-05
-6.21472e-06
-8.99174e-05
5.22715e-05
0.000157961
2.40975e-05
9.16882e-05
-2.49443e-05
0.000157723
9.0919e-05
-3.16929e-06
9.47254e-05
3.90381e-05
0.00013097
-2.58326e-07
-6.85493e-05
2.66219e-06
7.40001e-05
0.000133419
5.79276e-05
2.02988e-05
3.31159e-05
8.04212e-05
4.36595e-05
1.22658e-05
7.49687e-05
5.09605e-05
4.32276e-05
-3.98806e-05
-3.45637e-05
4.04441e-05
2.44903e-05
0.00011572
6.60872e-05
1.82551e-05
8.13091e-05
1.99645e-05
-1.88099e-05
0.000119796
9.26161e-05
-2.24402e-06
3.77486e-05
2.03241e-05
6.79656e-06
4.46087e-05
-3.19161e-05
4.68964e-05
-1.15022e-05
-4.98405e-05
2.32958e-05
2.09627e-05
0.000160761
9.88224e-05
2.06323e-06
0.000137836
1.15241e-05
-3.11246e-05
0.000132418
1.78271e-05
2.91317e-05
0.000108428
-8.34535e-06
3.45047e-05
4.32307e-05
5.74661e-06
3.4271e-05
-5.27618e-06
1.75427e-05
7.6778e-05
2.50083e-05
0.00011271
-2.20694e-05
3.25853e-05
2.55229e-05
5.84617e-05
-6.12723e-05
0.000105448
0.000137295
2.50291e-05
4.32236e-05
7.45822e-05
0.000111579
-2.02677e-05
-8.13359e-06
8.72926e-05
-8.23223e-05
1.15579e-05
3.31809e-05
8.87689e-05
-7.06e-05
-3.1811e-05
5.65371e-06
1.04993e-05
7.98537e-05
4.14199e-05
7.20922e-05
0.000102553
7.46856e-05
2.48842e-05
0.000198125
8.16127e-05
-6.56993e-05
6.24199e-05
0.000201229
4.75221e-05
8.3276e-05
7.86665e-05
-1.63089e-05
5.95989e-05
0.000149169
4.3901e-05
3.83358e-05
-1.00759e-05
6.97707e-05
-5.98881e-05
5.34231e-05
6.86804e-05
8.57906e-05
6.81021e-05
0.000137439
0.000106097
-2.40523e-05
0.000111081
-0.000131281
0.000102691
9.90942e-05
-5.28728e-05
-3.79202e-05
8.69744e-05
0.000114877
0.000176992
3.40522e-05
7.95295e-05
5.67451e-05
-3.69137e-05
-1.51403e-05
8.69037e-05
6.86066e-05
6.22869e-06
4.16544e-05
2.36372e-05
2.60695e-05
0.000121307
-3.55705e-05
-2.05773e-05
2.75014e-05
5.9451e-05
8.97958e-06
1.84992e-05
8.6694e-05
-5.82663e-05
-3.07104e-07
2.65901e-05
-1.44092e-05
-2.21961e-05
-3.95468e-05
0.000128655
-4.29642e-06
2.10479e-05
-3.85132e-05
0.000102293
2.14374e-05
2.40528e-05
4.18616e-05
-0.0001049
2.47045e-05
-6.30284e-05
-2.51196e-05
-2.38868e-05
5.12265e-05
-2.60441e-05
-7.5764e-05
4.98926e-05
-6.60464e-05
-4.28999e-05
2.33413e-05
-5.99085e-05
-8.02726e-05
3.00258e-06
-4.24259e-05
4.66267e-06
1.08912e-05
-2.15753e-05
-4.06045e-06
-5.82074e-05
-6.74933e-05
-0.000106139
-1.79197e-05
-2.00458e-05
-5.72711e-05
-2.52766e-05
7.73021e-06
-3.07409e-05
-8.53869e-05
-3.53891e-05
-8.3613e-06
2.7442e-05
-7.95685e-05
-6.67488e-05
2.31336e-05
-0.000103178
-3.37884e-05
1.98339e-05
-8.20329e-05
-5.15868e-05
-4.38413e-05
8.67271e-06
3.55996e-05
-2.47128e-05
4.87431e-06
-0.000112385
-3.15168e-05
3.88791e-05
-3.39414e-05
-6.5613e-05
-4.11932e-05
-3.17378e-05
2.98233e-05
-2.85313e-05
-3.54566e-05
-2.34861e-05
-0.00011611
1.48104e-05
-3.37936e-05
4.56304e-05
-5.12688e-05
-5.72853e-05
-3.73456e-05
-3.01475e-05
-6.05669e-05
-1.00289e-05
-7.96344e-05
-0.000109192
1.21041e-05
-4.39817e-05
9.01753e-06
-1.84356e-05
1.72422e-05
-5.13539e-05
-1.04341e-05
4.76096e-05
-2.54938e-05
5.74085e-05
2.16067e-07
-3.24121e-05
-5.04444e-05
-8.2256e-05
2.84826e-05
2.44662e-05
-6.16946e-05
-0.000158637
-4.16978e-05
-6.56582e-08
-1.69133e-05
8.77364e-06
5.33127e-05
3.15649e-06
-1.0794e-05
2.47143e-05
-5.9657e-06
3.43227e-05
-2.73112e-05
-6.84708e-06
-1.89489e-06
-4.36434e-05
-0.000106617
-3.96519e-05
-2.96769e-05
-3.55601e-05
1.64219e-05
-5.91241e-05
-4.27191e-05
-1.06706e-06
-5.99993e-06
5.43522e-05
-3.5424e-05
-7.13804e-05
-7.13186e-05
4.01705e-05
1.15471e-05
-5.23517e-05
-1.11542e-05
9.64524e-06
3.18988e-05
-8.57753e-05
1.3962e-05
-6.13793e-05
-7.74139e-06
-3.48628e-05
-1.671e-05
-4.55657e-05
-6.96026e-05
1.70249e-05
-4.88102e-05
-2.07965e-05
1.59815e-05
-1.05526e-05
-2.35443e-05
-1.24412e-05
-3.31044e-05
-4.60125e-05
-1.3358e-05
-4.22456e-05
-8.32323e-06
-5.94477e-05
-7.82582e-05
8.69716e-06
-2.01934e-06
-8.38252e-05
1.05487e-05
-3.22353e-05
-4.36762e-05
-0.000117681
-8.72603e-06
-3.99579e-05
-3.83076e-05
-7.16748e-05
9.37085e-06
3.00056e-05
-1.70411e-05
-2.39994e-05
-1.85601e-06
-5.11225e-05
-2.0256e-05
-8.13483e-05
-6.40941e-05
3.62432e-05
-8.02707e-05
-7.56304e-06
2.37463e-05
2.21166e-05
-5.27808e-05
-2.42528e-06
3.60702e-05
-9.46563e-05
1.02374e-05
-2.21479e-05
3.97032e-05
-4.13514e-05
-2.55485e-05
-5.70109e-06
3.04058e-05
-6.90701e-05
-4.7768e-05
3.67502e-05
-4.79619e-06
2.05939e-06
-4.86568e-05
-0.000107547
-6.6024e-05
-2.66008e-05
-2.24792e-05
-9.33011e-06
-1.88574e-05
-0.000101449
6.32275e-06
3.69592e-05
4.61098e-06
-1.0849e-05
-2.36547e-05
-8.50841e-05
-3.90909e-05
4.81099e-05
-6.9777e-06
-7.5189e-05
-6.46281e-05
-4.37906e-05
3.07565e-05
-5.53511e-05
1.83063e-06
-5.12165e-05
9.71671e-05
1.17974e-05
-4.1407e-05
-5.22411e-05
-4.83998e-05
-4.73993e-05
3.21252e-05
-3.50832e-05
-7.29871e-05
1.69803e-06
-2.5388e-05
-1.98885e-05
4.5062e-06
-1.73197e-05
7.05676e-05
5.70891e-05
-6.7067e-05
-3.48978e-05
-2.73385e-05
-7.02044e-05
-2.06063e-05
2.42677e-05
8.58865e-05
-8.70347e-05
6.93428e-06
-4.34538e-05
-3.62699e-05
6.90318e-05
3.75876e-05
-6.27587e-05
-4.99142e-06
2.55414e-05
-5.11213e-05
2.26249e-05
-1.34835e-05
-4.80209e-05
-1.98239e-05
3.05509e-06
3.73251e-05
3.4268e-05
-1.23483e-05
-2.31676e-05
-0.000132199
-1.6694e-07
-7.60658e-06
5.12584e-05
-7.35337e-06
-7.3632e-05
5.0168e-06
-3.30425e-05
-1.9907e-06
5.00253e-05
-7.79773e-06
-2.33898e-05
-8.48039e-06
1.05414e-06
-1.92298e-05
7.13235e-05
-5.15233e-05
7.82288e-06
3.1163e-05
6.53442e-05
-4.67902e-05
-2.90639e-05
-1.14903e-05
-2.49571e-05
-9.34287e-05
-2.04819e-05
3.51594e-05
4.88627e-05
3.6408e-05
-1.64525e-05
3.77697e-05
6.14576e-05
-4.75243e-05
4.48453e-05
4.40083e-05
9.82324e-06
-5.10869e-05
1.23071e-05
2.3444e-05
7.04301e-05
4.96686e-05
-3.57144e-05
2.25285e-05
5.27408e-06
-2.51166e-05
4.8009e-05
3.40394e-05
2.11626e-05
-2.89195e-05
-7.34254e-05
2.16749e-05
3.48728e-05
1.42085e-06
-4.63355e-05
1.81724e-06
-1.65716e-05
5.22445e-05
1.92709e-05
-4.25103e-05
-9.05944e-05
6.88399e-06
2.94278e-05
9.43267e-06
3.90759e-05
-4.01764e-05
2.79776e-05
-3.30702e-05
9.02753e-05
1.8706e-05
2.19358e-05
-2.38945e-05
3.89222e-05
7.95067e-05
-1.43051e-06
-1.0787e-05
-4.3123e-05
-5.63422e-05
3.65556e-05
5.69108e-06
-2.97658e-05
3.18502e-05
-3.75101e-05
-1.97681e-05
6.36958e-05
5.06417e-05
-4.80586e-05
-4.1877e-05
-9.31241e-06
-2.6356e-05
-1.33658e-05
5.09447e-05
7.41071e-05
-1.38809e-05
-5.52129e-05
-6.02389e-05
2.25469e-05
4.01651e-05
-3.56471e-05
4.60853e-05
6.04024e-05
1.00423e-05
-2.72853e-05
-6.84022e-05
1.03852e-05
-3.90662e-05
-6.67316e-05
1.89331e-05
-3.86646e-05
-7.26086e-05
1.55346e-05
3.44664e-05
-9.18144e-06
-2.52388e-05
3.49993e-05
6.7194e-05
-7.81415e-06
-2.34849e-05
1.90875e-05
-3.45568e-05
-3.24706e-06
3.17621e-05
-4.33616e-05
-4.44566e-05
-1.29158e-05
6.19076e-05
-1.54722e-05
-1.92423e-05
-9.33884e-07
1.07803e-05
-2.6786e-05
6.43285e-05
6.2841e-07
3.16114e-05
-3.45439e-05
-2.02109e-05
3.29816e-05
-8.92964e-06
-5.33777e-05
-6.58382e-05
-1.97738e-05
2.38372e-06
3.65471e-05
8.36793e-06
-1.87824e-06
1.48293e-05
-2.75732e-05
4.24776e-05
2.79527e-05
9.69109e-05
6.65832e-05
1.94269e-05
1.45667e-05
-1.36638e-05
5.90177e-05
5.77694e-05
-3.53303e-05
8.65557e-05
-1.88481e-05
-2.10229e-05
-5.39365e-05
1.12338e-05
-1.22993e-05
7.03167e-05
-1.07868e-05
6.14894e-06
5.7794e-05
3.47515e-05
-3.56389e-05
-5.85616e-06
4.38266e-05
2.99951e-05
1.48878e-05
3.09432e-06
-6.2997e-05
1.44143e-05
-9.34468e-05
4.10876e-05
-3.34157e-05
-7.29718e-05
6.78666e-06
-4.31378e-05
3.26064e-05
-5.40693e-05
-3.51891e-05
-7.38096e-06
-3.46785e-05
7.78143e-06
5.28588e-05
1.66988e-05
-1.61538e-06
7.61887e-05
-2.89618e-06
5.27892e-05
3.31001e-05
2.6905e-05
3.20117e-05
-4.14016e-05
-7.91212e-05
6.70389e-06
-3.71058e-05
3.38652e-07
3.12874e-05
2.55891e-05
4.62425e-05
-7.34453e-06
3.8557e-05
-1.82483e-05
8.60397e-05
-3.51756e-05
-2.42111e-05
-2.44786e-05
3.9688e-05
3.96363e-05
-5.59608e-06
-1.59823e-05
5.26487e-05
-3.12827e-05
-9.51323e-06
1.32088e-05
3.0308e-05
4.01441e-05
-6.21305e-05
6.55768e-06
-4.02807e-05
7.68162e-05
-2.30571e-05
2.42749e-06
-2.36235e-05
-7.65745e-06
1.056e-06
-7.5846e-05
1.89058e-05
4.24925e-05
2.73285e-06
-4.68806e-05
-0.000111356
2.3297e-05
1.92827e-05
1.66986e-06
4.11418e-05
-1.26257e-05
3.11492e-06
-2.15397e-05
-7.41894e-05
3.57793e-05
1.81668e-05
-4.43208e-05
1.38064e-05
2.49415e-05
-1.40071e-05
-5.45265e-05
-1.59671e-05
4.84829e-05
-4.49934e-06
-0.000139603
5.79739e-05
3.08065e-05
0.000100899
-3.7276e-05
3.8272e-05
1.96733e-05
-2.19463e-05
-3.16997e-05
-3.15025e-05
5.7979e-05
8.84749e-05
-9.06712e-06
-5.99886e-05
9.21858e-06
8.46386e-06
-1.87429e-08
-2.07851e-05
-3.90373e-05
0.000130275
-3.43214e-05
-4.70511e-05
5.37115e-05
-2.79618e-06
2.82296e-06
-3.79188e-05
-6.05411e-05
4.75425e-05
4.84361e-05
-1.75372e-05
3.74633e-05
-5.19105e-05
4.18173e-05
3.39494e-05
-6.99728e-05
2.73657e-05
3.88058e-05
1.67808e-05
-5.26784e-05
6.28692e-05
-2.19624e-05
-4.31013e-05
-7.4032e-06
-2.66794e-05
4.25469e-05
3.65032e-06
2.7573e-05
-4.7388e-05
-6.43707e-06
3.03097e-05
-2.263e-05
-8.19345e-05
-4.95824e-05
1.3624e-05
3.36368e-05
4.53521e-05
-3.78171e-05
6.72047e-05
-2.02057e-05
-6.23042e-05
4.74694e-05
4.6276e-05
1.24057e-05
3.82881e-05
2.15037e-05
5.87145e-05
-6.49998e-05
-4.25667e-05
-1.34121e-05
4.39063e-05
4.78702e-05
-2.23203e-05
-6.05176e-05
1.98337e-06
-2.43774e-06
-3.00119e-05
1.48918e-05
2.92043e-05
7.28869e-05
7.06632e-05
-3.58247e-05
-0.000140628
2.58456e-05
1.20397e-06
-2.88261e-05
-4.69697e-05
5.72423e-05
3.12584e-05
1.75571e-05
-0.000107817
-1.58475e-05
1.13323e-05
3.99521e-05
3.28138e-05
-4.30105e-05
3.20359e-05
3.74885e-05
-3.91937e-05
2.83311e-05
3.71949e-05
-1.37144e-05
3.5636e-05
-5.4416e-05
8.30453e-05
3.03237e-05
-1.9427e-05
-2.67291e-05
6.8428e-05
4.12179e-05
-2.91601e-05
3.35345e-05
3.92138e-05
3.68372e-05
-3.48368e-05
-2.81516e-05
1.4167e-05
3.5295e-05
-7.15662e-05
-2.16163e-05
4.6005e-05
3.6499e-05
2.3186e-05
-3.12361e-05
-7.13484e-05
2.25477e-05
-3.52723e-05
7.69857e-05
-4.16434e-05
-1.37864e-05
7.45143e-05
-5.40665e-05
4.00399e-06
-1.77844e-05
-5.58047e-05
2.01227e-05
5.95988e-06
5.05822e-05
6.3116e-05
-6.58255e-05
8.14191e-05
-4.32243e-05
-2.44334e-05
2.672e-05
4.39445e-06
9.56818e-06
7.65512e-06
4.39072e-06
-4.22159e-05
2.17027e-05
1.01279e-05
-1.56356e-05
-7.88143e-05
-2.79718e-05
-7.3316e-06
2.62836e-05
6.22903e-06
2.384e-05
-8.04116e-06
5.26161e-05
3.00959e-05
-3.07956e-05
-8.68588e-05
1.14744e-05
3.87336e-05
1.11609e-05
-2.85619e-05
-9.12475e-06
-2.48151e-06
2.21187e-05
-3.22983e-06
2.53442e-05
2.25465e-05
3.20964e-05
-2.08742e-05
-3.06289e-06
6.05523e-06
-3.414e-06
3.49667e-05
-2.44871e-05
5.34741e-05
1.96624e-05
1.27885e-05
-1.15687e-05
2.92521e-05
2.87057e-06
3.39592e-05
-1.87166e-05
-2.88663e-06
-6.9041e-05
2.46684e-05
-5.0388e-06
-1.26843e-05
2.05985e-05
-2.63399e-05
-2.66172e-06
-3.02477e-05
-7.38932e-05
-1.16541e-05
0.000124286
-9.67181e-05
2.30564e-05
4.08879e-05
1.12082e-05
1.89698e-05
2.29746e-05
-6.50401e-05
-1.85565e-05
-3.5894e-05
9.88762e-06
-2.25089e-05
-0.000114619
5.06442e-05
-0.000120174
-5.2155e-05
0.000129995
-2.85545e-05
-3.29313e-05
1.39815e-05
-3.08792e-06
-4.5842e-06
-6.87176e-05
5.00819e-07
2.54061e-05
-3.06813e-05
-4.837e-05
-2.09834e-05
3.77459e-05
3.9908e-05
1.09905e-05
-3.37753e-05
2.43062e-05
4.91923e-05
4.58608e-05
-7.13922e-05
-6.57426e-05
-4.48682e-05
5.14662e-05
2.45124e-06
-1.54704e-06
-6.96708e-05
3.4261e-07
-1.04234e-05
6.89412e-06
-2.29044e-05
-2.35531e-06
-3.06217e-05
3.27417e-05
-3.22657e-06
-1.03372e-05
-2.52567e-05
2.84621e-05
9.52231e-05
-3.02622e-05
3.21711e-05
4.43814e-05
-4.54087e-05
-0.000101101
-3.30771e-05
0.00011101
6.25444e-05
-5.28276e-05
-0.000107186
-1.18132e-05
6.85672e-05
3.46112e-05
-5.40467e-05
-5.21374e-05
4.75181e-05
-4.0637e-05
-0.000119436
6.12028e-05
-1.81564e-05
-3.11731e-05
0.000105493
-4.54735e-05
-9.29441e-05
-5.38453e-05
9.50519e-06
-5.54989e-05
1.67232e-05
4.28187e-06
-7.23697e-05
6.5245e-06
4.59246e-05
6.77793e-06
-2.06637e-06
5.32218e-05
2.83379e-05
-3.75984e-05
-4.85512e-05
0.000104193
-1.6281e-05
-5.72763e-06
-2.96998e-05
-2.67255e-06
-4.58123e-05
8.22777e-06
-1.31114e-05
-4.38883e-05
-3.36707e-05
-5.49546e-05
4.80607e-05
-3.43901e-05
5.50932e-05
-3.26773e-05
-2.49941e-05
-9.60915e-06
3.26964e-05
-4.34383e-05
8.21745e-05
3.9906e-06
1.01073e-05
-2.64168e-05
-1.68476e-06
5.18315e-05
-5.05232e-05
7.65339e-05
-2.69969e-05
-2.84482e-05
5.25336e-06
1.91294e-05
5.75271e-05
-1.55069e-05
1.41477e-05
1.54796e-05
9.67545e-05
-2.60593e-05
2.79746e-06
-6.86488e-05
-4.36429e-06
5.35604e-06
-6.23171e-07
-1.12271e-05
2.76119e-05
-7.06452e-05
2.38861e-05
3.64637e-05
-5.86128e-06
-1.47319e-05
5.85363e-05
-1.46346e-06
5.05475e-07
-8.36339e-06
-6.68822e-05
-7.45838e-06
-5.66774e-05
5.49147e-05
-1.55678e-05
-6.51174e-05
1.93971e-05
-2.5009e-05
1.49549e-05
4.44496e-05
-8.87853e-06
-5.64916e-05
-7.0704e-05
-8.34104e-06
-2.963e-05
-2.15229e-06
-1.8322e-05
-1.8935e-06
-0.000102777
8.74791e-06
3.2482e-05
3.0796e-05
-0.000103662
-3.61563e-05
2.02416e-05
8.39112e-05
4.75289e-06
-1.31452e-05
3.19695e-05
7.15256e-07
-3.71367e-05
-7.51375e-05
-6.92122e-05
-2.21247e-06
-7.09703e-05
1.36707e-06
-4.37517e-05
5.21012e-05
-3.20331e-05
-2.11231e-05
9.38214e-06
-1.06031e-06
4.85079e-06
-2.59301e-05
5.72978e-05
-2.03841e-05
4.02206e-05
1.71228e-05
-4.36113e-05
4.79107e-06
-4.09902e-05
-3.4878e-07
2.3094e-05
-3.31628e-05
1.34479e-05
1.23584e-05
-2.61039e-05
-4.63809e-05
1.17681e-05
-4.40205e-05
0.000100773
4.16171e-05
5.95758e-05
5.7274e-06
3.63542e-06
3.72172e-05
-2.83867e-05
-2.65327e-05
-3.87037e-05
-3.32437e-05
-2.94531e-06
-4.83508e-06
-7.42382e-05
-9.21182e-05
-4.12926e-05
9.36042e-05
1.79687e-05
2.46142e-05
5.07898e-05
-3.9092e-05
-4.86939e-05
-6.07772e-05
2.91871e-05
-7.01527e-05
2.39774e-05
5.71001e-05
1.43818e-05
-8.54455e-05
6.48925e-05
5.6416e-06
1.15011e-05
-0.000120717
5.3374e-05
7.36078e-05
5.39119e-06
1.38732e-05
1.18411e-05
-9.65083e-06
3.66955e-05
-3.03433e-05
4.71821e-05
6.17243e-05
-4.68118e-06
-4.04324e-05
-2.98399e-05
4.8338e-06
-1.19198e-06
4.36946e-05
-1.84949e-06
-1.13774e-05
-1.70609e-05
7.82479e-05
-4.58385e-06
1.7914e-05
-3.62853e-05
-7.78628e-05
7.38346e-05
-9.19306e-05
-5.20761e-06
2.09283e-05
2.30642e-06
7.05892e-05
3.83817e-05
7.42101e-06
5.50144e-05
-1.01442e-05
4.60941e-05
-1.68374e-05
-5.88747e-05
-4.91897e-05
5.14215e-05
5.45883e-05
-1.98532e-05
5.81015e-05
3.02003e-05
1.38802e-05
2.24963e-05
6.25567e-05
6.90226e-06
-8.80081e-05
-1.34252e-05
-5.00819e-06
4.87003e-05
5.99251e-05
6.30912e-05
1.42644e-06
2.14424e-05
-2.66382e-05
-9.90403e-06
-6.22048e-05
-1.60281e-05
3.25949e-05
-3.8536e-05
-1.90412e-05
5.31538e-05
-2.28168e-05
1.54101e-05
-4.23554e-05
-5.64964e-07
-5.11481e-05
-1.07912e-05
-0.000114606
2.06344e-05
1.91701e-05
7.28543e-05
2.73276e-05
-4.94907e-05
5.05781e-05
5.27867e-05
6.41994e-05
-7.99086e-06
4.43973e-05
-4.86511e-05
-2.58867e-05
-3.12885e-05
9.76643e-05
-4.46023e-05
-4.87096e-05
2.7045e-05
-5.04586e-05
1.36553e-05
-9.01836e-05
-0.000131355
6.04801e-05
5.67492e-05
-1.70098e-05
2.47735e-05
-9.10868e-06
5.16701e-05
-8.06586e-05
3.82913e-05
3.78338e-05
1.5907e-05
-7.97631e-06
-6.65511e-06
3.57417e-05
3.13777e-05
-9.32618e-05
-4.72955e-05
-9.38079e-05
-4.97694e-05
6.84748e-05
-3.54389e-05
9.14489e-06
-3.66225e-05
3.87214e-05
1.69345e-05
4.47609e-05
-5.40497e-05
2.94936e-05
6.61319e-05
1.22411e-05
-6.64294e-05
1.13377e-06
1.48168e-05
-1.36936e-05
6.08948e-05
-9.08971e-07
7.89305e-05
9.09681e-06
5.26162e-05
-9.66367e-05
3.41132e-05
6.60517e-06
-1.27818e-05
-4.43459e-05
-2.06707e-05
3.1509e-06
-9.30391e-07
-6.30607e-05
-0.000100799
-4.15867e-05
-9.15081e-05
-4.81867e-05
5.62924e-05
-1.52458e-05
-5.2291e-05
-2.412e-05
-1.0829e-05
-4.57695e-05
-4.23091e-05
1.19056e-05
2.83612e-05
-1.41361e-05
-5.28242e-05
-6.13482e-05
1.7733e-05
1.07326e-05
-2.08276e-05
5.96312e-05
1.79105e-06
2.51201e-05
-2.36359e-05
5.8867e-05
3.18959e-05
4.76106e-05
-7.31895e-05
7.22465e-05
-0.000100922
-6.24137e-06
6.49313e-05
8.48947e-06
3.23066e-05
-3.30713e-06
-4.32201e-05
2.37767e-06
1.99968e-05
-1.2729e-05
9.59379e-06
3.61397e-05
2.75425e-05
6.92133e-05
-2.72365e-06
-6.32239e-05
-6.14556e-06
-7.61077e-06
-1.02113e-05
4.4503e-05
5.20109e-06
2.67313e-05
-6.62915e-06
-4.79817e-06
-2.94806e-05
1.43559e-05
5.69003e-06
6.79193e-05
9.01206e-06
3.43912e-05
1.84254e-05
1.29042e-05
-4.46523e-05
3.45936e-05
3.36543e-05
1.93855e-06
-1.88095e-05
4.46877e-05
-5.23895e-05
6.7536e-05
7.74649e-05
6.37188e-06
8.13847e-05
-3.18107e-05
2.20668e-05
-1.73561e-05
-2.87805e-05
-6.86578e-05
1.19235e-05
2.47915e-05
1.23701e-05
-3.48673e-05
2.16786e-05
-2.20755e-05
-3.52494e-06
1.23346e-05
1.70933e-06
2.97126e-05
-6.88562e-05
-1.33736e-05
9.18959e-05
-3.43516e-05
1.47281e-05
-1.23635e-05
4.94567e-05
2.42062e-05
-4.44677e-05
5.05936e-05
0.000106778
9.66933e-05
6.52504e-05
8.89879e-07
-7.20704e-06
-1.14569e-05
6.66912e-05
-5.44777e-06
4.01795e-05
-2.33973e-05
4.17558e-05
-3.41279e-05
-2.13976e-05
6.28084e-06
-2.6264e-05
3.58208e-05
-8.93144e-05
4.69466e-05
-3.57549e-05
3.30252e-05
2.34649e-05
-9.97122e-05
2.2134e-05
3.57023e-05
-1.87465e-05
2.13266e-05
-6.78236e-05
2.71616e-05
-5.16978e-05
5.68142e-05
4.88439e-05
-1.74807e-05
3.8041e-05
4.54168e-05
1.17873e-05
-8.37981e-06
2.07496e-05
-2.05643e-05
5.28255e-05
-7.57058e-05
-4.2627e-05
-7.67282e-06
2.04982e-05
-1.54355e-05
-3.12331e-05
1.174e-05
6.2165e-05
4.88071e-05
4.33601e-06
-0.000127571
-5.02239e-05
-6.86675e-05
-6.60996e-05
3.09136e-05
7.61501e-05
-7.0136e-05
-7.03009e-06
9.28459e-06
4.82402e-05
3.84019e-06
8.47282e-06
-6.75758e-05
-1.85831e-05
1.21736e-05
-8.6677e-06
-3.19532e-05
-1.42835e-05
3.18419e-06
7.33067e-06
1.82409e-05
2.56515e-05
-6.7884e-05
-4.71412e-06
3.49286e-05
-5.05329e-05
1.07933e-05
-1.50148e-05
-1.63048e-05
-2.95388e-05
9.53887e-05
2.63907e-05
-1.76687e-05
-2.15019e-05
-1.27994e-05
8.03312e-06
-1.35803e-05
2.63908e-05
-7.18515e-06
-1.90843e-05
2.1728e-05
5.39327e-05
-9.03428e-05
5.7904e-05
-1.44775e-05
-1.46055e-05
-3.83222e-05
-4.54385e-05
2.61611e-05
5.74819e-05
2.07163e-05
1.80586e-05
2.61939e-05
-7.22182e-06
-2.65971e-05
2.38707e-05
-3.81792e-05
-3.29986e-05
2.86618e-05
4.19584e-06
5.34145e-05
-1.29021e-05
-4.54602e-06
9.10496e-05
1.63328e-05
1.69141e-05
-4.63272e-05
3.5574e-05
-3.91717e-05
2.29456e-05
1.72227e-05
3.08617e-06
6.80585e-05
6.72808e-05
-1.70238e-05
-7.54651e-06
4.55867e-05
-1.23878e-05
-6.61262e-06
0.000122597
3.2628e-05
1.82124e-05
2.49492e-05
-5.22539e-05
-2.22388e-05
-5.7017e-05
1.30443e-06
7.69028e-06
2.41784e-05
1.07714e-05
-5.20677e-05
1.767e-05
6.4493e-05
-6.11886e-05
5.44069e-05
-4.49317e-05
-7.05203e-05
6.2309e-06
3.27919e-05
4.70874e-05
1.32772e-06
1.32954e-05
-7.78604e-05
-2.81835e-05
-6.89272e-06
0.000112601
3.68475e-05
-3.34255e-05
4.85625e-05
3.18345e-05
1.1489e-05
6.94895e-05
0.000133271
-7.38599e-05
-4.20365e-05
-1.68972e-05
2.04113e-05
8.13231e-06
-1.95547e-05
3.47553e-05
5.05907e-05
-6.30396e-05
-4.2269e-05
1.79625e-05
5.70341e-05
-6.66711e-07
2.83978e-05
-3.47798e-05
-8.23166e-05
-3.16931e-05
-5.51023e-05
-1.69484e-05
6.43992e-05
-5.57766e-05
5.25212e-05
-0.000112341
-7.10647e-05
-1.52235e-05
-1.60267e-05
-3.593e-05
5.28323e-05
4.40276e-05
-4.75487e-06
-6.05782e-05
-2.03254e-05
1.72129e-05
2.40903e-05
-2.15002e-05
-3.80276e-05
1.84207e-05
-5.22971e-05
-1.48044e-05
-9.0426e-05
-1.86132e-05
-1.40988e-05
0.000121308
-2.54704e-05
5.25208e-05
3.79469e-05
3.11936e-05
-3.85308e-05
-5.10202e-06
-4.49661e-05
2.62952e-05
1.12429e-05
-1.86055e-05
1.74426e-05
-3.76217e-05
8.71113e-06
-3.17956e-05
7.14654e-05
-7.47012e-05
0.000101809
5.19644e-05
3.18051e-05
1.94157e-05
4.63659e-05
-3.00468e-06
1.62402e-05
7.99993e-05
3.67628e-06
-1.37991e-05
-5.21085e-05
-5.62185e-05
2.68223e-05
-3.78022e-05
-4.78231e-05
2.88634e-05
-2.68992e-05
-1.16546e-05
-5.02805e-05
3.10766e-05
-2.00595e-05
3.81093e-05
-8.71741e-05
-4.69049e-05
1.67197e-05
4.92434e-05
9.12789e-06
1.42632e-06
-6.69421e-05
-7.27301e-05
-1.43617e-05
-9.7442e-06
-1.5698e-05
2.67383e-05
-9.21222e-05
-5.88646e-05
-1.25882e-05
5.10602e-05
-8.97488e-05
7.8602e-05
1.30897e-05
1.51682e-05
-0.000114672
-4.1971e-05
1.06482e-05
8.8415e-05
-6.75325e-06
-6.93044e-06
1.08085e-05
-9.15197e-05
-1.49587e-05
1.07787e-05
5.18084e-05
-3.28288e-05
4.25933e-05
9.43104e-06
7.85571e-07
4.03612e-05
-3.83495e-06
2.66725e-05
-2.21876e-05
6.11646e-07
2.16416e-06
1.83092e-05
-2.01634e-05
-7.52347e-05
-8.20158e-05
-4.08832e-05
3.06885e-05
3.11446e-05
-1.76032e-05
-1.14896e-05
3.87502e-05
9.27388e-06
1.17527e-05
-4.44881e-05
-5.27485e-05
-4.2652e-05
9.60717e-05
-3.91064e-05
-6.17567e-05
-4.51249e-05
4.72076e-06
-4.15784e-05
-1.74763e-06
2.57661e-05
4.81145e-05
-3.50763e-05
2.89145e-05
3.42634e-05
2.19489e-05
-2.03149e-05
-2.84294e-05
2.95846e-05
6.23257e-05
1.81488e-05
-1.77096e-05
-4.22893e-05
-3.51807e-06
6.32224e-05
3.54648e-06
7.63172e-06
-5.29399e-06
1.01698e-05
2.74985e-05
2.91365e-05
-2.60755e-05
-5.97399e-05
8.67882e-05
3.29308e-05
-1.45724e-05
-1.42364e-05
5.72898e-05
3.8431e-06
9.81889e-05
0.000121367
-2.85938e-05
2.49975e-05
7.87165e-06
-1.86719e-05
-1.70157e-05
-7.32375e-05
0.00011208
-1.25973e-05
-6.01782e-05
7.86234e-06
3.08842e-05
9.78401e-06
7.84127e-06
1.71367e-05
4.90109e-08
-2.67229e-05
-2.56809e-05
-4.13368e-05
-4.55835e-05
-1.76241e-05
-7.76595e-06
-4.82696e-05
7.13973e-05
1.64239e-05
3.01742e-05
-3.19595e-05
1.39846e-05
-1.39403e-05
-1.55894e-05
4.4764e-06
-1.6586e-05
8.27659e-05
5.56016e-05
5.67257e-06
3.54117e-05
2.86184e-06
-1.63055e-05
2.07499e-05
9.63197e-06
-1.45009e-05
-4.88884e-05
-4.0748e-05
-9.69239e-06
4.12577e-05
-2.15799e-05
-3.41526e-05
5.64964e-05
-1.37318e-05
-5.04202e-05
3.84749e-05
-2.33623e-05
-1.19605e-06
-5.94469e-05
5.95232e-06
6.40075e-05
-7.39724e-05
-2.23715e-05
-4.28921e-06
-7.43159e-05
-1.581e-05
5.60062e-05
-2.41017e-05
5.20147e-05
4.58724e-05
-3.16426e-05
0.000122277
2.89964e-05
1.20705e-05
-2.74089e-05
-3.4468e-05
-3.20204e-05
5.98459e-05
4.27905e-05
-2.54272e-05
-1.62858e-05
4.25265e-05
4.55981e-05
-7.0805e-05
-4.53842e-05
-1.75914e-05
6.00134e-05
3.70808e-05
4.36974e-05
-7.64453e-06
2.17555e-05
1.48433e-05
1.47811e-05
3.49523e-05
1.44986e-05
-7.17349e-05
5.90796e-05
3.93529e-05
-1.62123e-05
4.7453e-05
-1.84564e-05
-3.84235e-05
8.4609e-05
5.78987e-05
5.29932e-05
-2.82945e-05
-1.40264e-05
-3.38163e-06
6.56869e-05
1.70162e-05
1.81666e-05
-1.45182e-05
-3.22157e-05
8.30181e-06
5.70647e-05
3.72091e-05
6.89621e-05
3.92866e-05
3.07861e-05
-1.59345e-05
4.175e-05
8.47271e-06
-3.21827e-05
-1.07551e-05
-1.45927e-05
5.39322e-05
1.21886e-05
2.11243e-05
-2.64751e-05
1.12987e-05
-2.39081e-05
-1.4451e-05
1.0998e-05
-7.73545e-06
4.69026e-06
1.6859e-05
6.67054e-05
1.57988e-05
-0.000107579
-8.24991e-05
6.5231e-06
-5.8507e-05
5.17324e-05
1.84858e-05
1.66777e-05
-7.07679e-05
5.68503e-06
-1.86226e-05
-4.33436e-05
5.8328e-05
-4.15357e-05
-7.76738e-05
-1.33211e-05
-3.74751e-05
-1.10001e-06
5.06311e-05
3.43447e-05
5.21397e-05
2.95317e-05
4.71439e-05
-2.02374e-05
0.000134812
5.5166e-05
-3.82706e-05
-1.12215e-05
0.000111733
1.12853e-06
-1.38334e-05
-2.07329e-05
-1.05337e-05
5.75138e-06
2.51081e-05
-6.4718e-05
1.22236e-06
0.00011825
2.02318e-05
-6.9679e-05
-8.34579e-05
9.06892e-05
4.29546e-05
-6.09942e-05
-2.33611e-06
4.52448e-06
-2.48621e-05
-7.49836e-05
-6.30133e-06
3.39792e-05
6.28864e-05
-2.65916e-06
-2.97546e-05
-6.67728e-05
-1.08313e-05
7.42381e-06
3.03183e-05
-1.26914e-05
1.26481e-05
-3.24745e-05
-1.54029e-05
4.6596e-05
-6.06407e-07
-7.33237e-05
-3.61169e-05
3.19347e-05
5.07119e-05
5.52044e-05
-3.86608e-05
-2.71014e-05
-1.73179e-06
4.00438e-05
-1.28828e-05
1.15241e-05
2.7539e-05
1.50998e-05
2.02358e-05
3.2782e-05
-0.000103583
-2.37206e-05
5.62994e-05
-3.56049e-05
-8.56415e-05
0.000101617
-2.90696e-05
2.1579e-05
-5.19505e-05
6.29353e-06
-5.95589e-05
3.80212e-06
-4.01154e-05
2.21789e-05
-9.73814e-06
6.3583e-05
-2.76123e-05
-2.54392e-05
9.06726e-05
-5.5589e-05
-3.51439e-05
1.47808e-05
-2.3094e-05
3.46852e-05
-4.10144e-05
-1.0932e-05
2.98407e-05
3.45645e-05
-4.78462e-05
-5.78741e-05
-3.72985e-05
3.58616e-05
-1.02356e-05
-1.76756e-05
3.83472e-05
4.55091e-06
-3.07261e-05
-6.31748e-05
6.19073e-06
-5.68884e-05
0.000120349
-0.000117729
-6.80874e-05
1.01869e-05
-1.02158e-05
2.82163e-05
-1.96022e-05
-6.25604e-06
3.50742e-05
9.93162e-06
-5.96483e-05
5.40576e-05
-2.97576e-05
-7.25733e-07
-9.39076e-06
-2.64806e-05
5.89006e-05
9.35845e-05
7.95017e-05
-1.68916e-05
-6.82934e-05
-7.77039e-05
4.75621e-05
-1.31794e-06
1.17446e-05
5.16307e-05
-6.31509e-05
2.21429e-05
3.45723e-05
-3.8962e-05
4.9273e-05
9.85339e-06
-2.73691e-05
-7.18015e-05
-2.2077e-06
9.41253e-06
5.68602e-05
-2.01401e-05
-8.62218e-06
7.08969e-06
9.58098e-07
-2.9198e-05
-3.6772e-05
9.86969e-07
-7.08364e-06
-7.77072e-05
4.07124e-05
2.28045e-05
-2.33533e-05
-2.82729e-05
6.35569e-06
-3.10612e-05
-2.37791e-05
5.87649e-05
3.77755e-05
-8.88546e-05
1.88742e-05
2.82149e-05
2.42068e-05
-1.97262e-05
3.13718e-05
2.67723e-05
-2.78912e-05
-1.14409e-05
4.39793e-05
-1.84721e-05
6.2898e-06
-9.4159e-06
3.67078e-05
-1.65383e-05
-2.21912e-05
-3.26348e-05
2.11543e-05
-9.05287e-05
-2.25267e-05
7.17805e-06
-1.67803e-05
-5.12953e-05
-4.1526e-05
3.02582e-05
1.87581e-05
1.34517e-05
6.79975e-05
0.000103678
-2.68695e-05
-5.62217e-05
-7.36839e-06
-8.72952e-06
-8.2209e-06
-0.000119192
3.07658e-05
9.97081e-05
7.93557e-05
2.35232e-05
2.89525e-06
3.23562e-05
6.61914e-06
-1.27401e-05
-1.12371e-05
3.50201e-06
6.08936e-05
-6.73498e-06
5.99327e-05
-9.10787e-06
-4.93433e-05
-1.25009e-05
-1.79207e-05
3.41783e-05
-3.37979e-05
7.39563e-06
5.94538e-05
0.000102923
1.58963e-05
2.07464e-06
6.60841e-05
-5.49527e-05
-6.42205e-05
4.83636e-06
5.86053e-05
-3.53626e-05
-0.000113619
-3.2186e-05
8.2521e-06
3.0373e-05
4.09456e-06
1.25875e-05
-2.57908e-05
4.03041e-06
-1.99426e-05
-0.000115459
-8.30344e-06
2.34318e-05
1.67681e-05
-9.89926e-06
-1.77941e-05
3.41062e-05
5.3838e-05
-8.89646e-07
-3.26857e-05
-1.44828e-05
1.0839e-05
2.86296e-05
1.41962e-05
-1.13219e-05
4.3634e-05
-9.70019e-06
4.36597e-05
-6.26012e-06
-6.49593e-05
8.334e-05
7.37328e-06
-2.33589e-05
-5.29961e-05
8.21939e-06
-7.67084e-05
-5.47338e-05
1.6999e-05
-2.35285e-05
6.93036e-05
-5.89244e-05
-1.58967e-05
-3.79665e-06
-4.36553e-05
1.74972e-06
6.90878e-06
-1.56336e-05
-1.26815e-05
-6.31355e-06
-2.87476e-05
6.35838e-05
-1.27364e-05
2.98878e-05
-1.94586e-05
0.00010666
-6.87318e-05
2.64286e-06
7.97827e-05
-7.28987e-05
-2.1163e-05
-1.82865e-06
-5.65476e-06
-3.07194e-05
-1.66357e-07
6.13097e-05
-4.53613e-05
-3.93693e-06
2.74235e-05
5.10007e-05
6.30179e-06
2.15227e-05
-5.93155e-05
-4.52383e-05
-4.56917e-05
-4.39743e-05
-2.38915e-05
-5.03429e-05
-2.24265e-05
-6.28909e-05
1.11944e-05
0.000117077
1.08845e-05
1.6035e-06
7.11589e-06
-1.24834e-05
-9.79601e-05
1.17283e-05
-2.43352e-05
-6.52869e-05
-4.57345e-05
9.77495e-05
-2.84505e-05
2.46853e-05
2.89713e-05
-3.39512e-05
9.1926e-05
-5.06378e-05
-3.13995e-05
4.17698e-07
2.26258e-05
5.23943e-05
-4.6351e-05
3.01981e-06
-7.25874e-05
3.62424e-05
4.53799e-05
5.10276e-05
4.96123e-05
1.14623e-05
6.3146e-06
1.38573e-05
1.41456e-06
1.3563e-05
-5.94298e-05
-5.26091e-05
-3.14449e-05
3.68987e-05
-1.13063e-06
4.3941e-06
1.65978e-05
1.01097e-05
-4.56736e-05
-5.67073e-05
-2.16058e-05
3.75393e-06
3.02104e-05
2.47178e-05
-3.70552e-05
-4.68157e-05
-8.0327e-05
-3.89207e-05
8.46451e-05
4.35198e-05
1.98975e-05
-8.17585e-06
-6.95733e-06
-5.38767e-05
3.58439e-05
-6.18508e-05
7.90429e-05
-1.59479e-05
-3.99167e-05
-6.26172e-05
3.5122e-05
5.15331e-05
1.97091e-06
-3.47046e-06
-9.94978e-06
5.45725e-05
-4.35939e-05
-3.20033e-05
3.58503e-05
-2.33698e-05
-7.19319e-06
3.1627e-05
-2.36788e-05
4.79077e-05
6.116e-05
-1.50183e-05
5.8336e-05
-1.60109e-05
-5.55504e-05
-4.11179e-05
3.92951e-05
8.73667e-05
-9.01846e-06
2.39068e-05
5.31232e-05
-2.11783e-06
3.75919e-05
-6.1114e-05
-5.37818e-05
4.75652e-05
-2.97432e-05
-7.41592e-05
-1.30138e-05
3.82867e-06
-4.959e-05
-1.00635e-05
1.48062e-05
3.36743e-06
-4.77559e-05
-3.26615e-05
4.78001e-06
4.40956e-05
4.04308e-05
-4.65773e-05
-4.65795e-05
9.95409e-06
6.58098e-05
1.77757e-05
-1.76016e-05
-0.000102062
4.74708e-05
-2.01665e-05
-7.77585e-06
-8.79879e-06
4.50335e-05
-5.59178e-06
-5.70053e-05
-1.93105e-05
-3.39668e-05
4.75908e-05
2.16514e-05
-2.22094e-05
-2.4779e-05
-2.54154e-05
-5.89062e-06
-1.1566e-05
-4.13186e-05
-4.02364e-05
1.2056e-06
-4.4826e-05
2.0425e-05
3.38093e-06
-2.82917e-05
3.01641e-05
9.3485e-06
-6.71301e-05
-4.05739e-05
7.09337e-05
-3.39557e-05
-2.67515e-05
2.17737e-05
1.56362e-05
1.44392e-05
-8.90205e-06
-1.19938e-05
1.44327e-05
8.70281e-05
-9.69972e-07
1.24234e-05
-5.59276e-05
-1.92771e-05
3.90809e-05
3.07069e-06
-4.05499e-05
7.56606e-06
6.72853e-05
3.94988e-05
-7.47544e-05
-3.48646e-05
2.46889e-05
-5.16154e-05
3.76685e-06
-4.08546e-05
-1.83189e-05
8.32831e-05
-3.53507e-05
-3.56361e-05
-9.10251e-06
-2.37034e-05
-7.61582e-05
-4.31736e-05
-3.4452e-05
3.03315e-05
-5.93211e-05
-4.43426e-05
-1.38482e-05
2.80142e-05
4.43449e-05
7.11263e-06
-4.19328e-07
-3.37955e-05
5.63177e-05
4.62114e-05
-7.51619e-05
0.000106832
-4.85462e-05
-1.38163e-05
-8.41334e-07
-1.47609e-05