# vtk DataFile Version 1.0
Net Charge Density
ASCII
DATASET STRUCTURED_POINTS
DIMENSIONS 256 128 1
ORIGIN 0 0 0
SPACING 0.15625 0.15625 1
POINT_DATA 32768
SCALARS rhonet float
LOOKUP_TABLE default
-3.89596e-06
-9.51276e-05
0.000144792
9.6322e-05
3.56841e-05
0.000120451
-0.000118445
9.1858e-05
0.000154216
2.28996e-05
-3.75607e-05
0.000108725
0.00010382
7.94457e-05
0.000109346
4.99608e-05
8.77434e-05
0.000140235
4.05884e-05
-6.79101e-05
-6.40703e-06
0.00014186
0.000144767
4.77821e-05
3.72683e-05
2.07429e-05
7.74219e-05
9.05888e-05
-1.35216e-05
-7.27428e-05
5.23025e-05
3.97234e-05
4.3669e-05
6.90081e-05
1.24414e-05
0.000171713
1.68071e-05
7.28727e-05
7.73574e-05
-5.53089e-06
2.29322e-05
6.83195e-06
0.000136404
9.39812e-05
2.09387e-05
1.8683e-05
-3.16132e-05
6.95545e-05
0.000116213
7.88721e-05
-1.20078e-05
2.49783e-05
8.34428e-05
0.000148995
3.55955e-05
1.75044e-05
0.000151011
-5.17473e-05
5.67804e-06
7.16953e-05
5.02795e-05
6.06023e-05
7.16839e-06
8.01798e-05
8.22489e-05
-8.03834e-05
4.41821e-05
0.000136175
4.09959e-05
4.82833e-05
7.92331e-05
3.67109e-05
-2.69158e-05
4.96675e-05
-1.15135e-07
5.11553e-05
4.20859e-05
-3.83079e-05
9.21619e-05
0.000106615
8.71837e-05
2.54083e-05
7.49615e-05
0.000101106
4.54686e-05
-4.48001e-06
-1.66915e-05
6.70485e-05
0.000119669
-2.3488e-05
9.00028e-05
-1.47953e-05
-3.90529e-05
-6.21437e-06
-8.99177e-05
5.22715e-05
0.000157961
2.40973e-05
9.16884e-05
-2.49444e-05
0.000157723
9.09189e-05
-3.16941e-06
9.47255e-05
3.9038e-05
0.000130971
-2.58093e-07
-6.85498e-05
2.66277e-06
7.39996e-05
0.00013342
5.7928e-05
2.02986e-05
3.31154e-05
8.04216e-05
4.36591e-05
1.22655e-05
7.49691e-05
5.09605e-05
4.32276e-05
-3.98807e-05
-3.45636e-05
4.04444e-05
2.44899e-05
0.00011572
6.60873e-05
1.82549e-05
8.13094e-05
1.99643e-05
-1.88097e-05
0.000119796
9.2616e-05
-2.24449e-06
3.77487e-05
2.03241e-05
6.79656e-06
4.46097e-05
-3.19163e-05
4.68963e-05
-1.15025e-05
-4.98409e-05
2.3296e-05
2.09624e-05
0.000160761
9.88224e-05
2.06358e-06
0.000137836
1.1524e-05
-3.1124e-05
0.000132418
1.78264e-05
2.91319e-05
0.000108428
-8.34547e-06
3.45042e-05
4.32301e-05
5.74649e-06
3.42712e-05
-5.27652e-06
1.75429e-05
7.67775e-05
2.50088e-05
0.000112709
-2.20691e-05
3.25857e-05
2.55227e-05
5.84619e-05
-6.12723e-05
0.000105448
0.000137296
2.50293e-05
4.32235e-05
7.45823e-05
0.000111579
-2.02678e-05
-8.13336e-06
8.72933e-05
-8.23224e-05
1.15582e-05
3.31806e-05
8.87696e-05
-7.06003e-05
-3.18113e-05
5.65336e-06
1.04989e-05
7.98533e-05
4.142e-05
7.20922e-05
0.000102553
7.46856e-05
2.48841e-05
0.000198125
8.1612e-05
-6.56995e-05
6.24197e-05
0.000201229
4.75221e-05
8.32756e-05
7.86671e-05
-1.6309e-05
5.95991e-05
0.00014917
4.39011e-05
3.83354e-05
-1.00759e-05
6.9771e-05
-5.9888e-05
5.34237e-05
6.86805e-05
8.57909e-05
6.81023e-05
0.000137439
0.000106097
-2.40523e-05
0.000111081
-0.000131281
0.000102691
9.90947e-05
-5.28729e-05
-3.79204e-05
8.69739e-05
0.000114877
0.000176992
3.40522e-05
7.95295e-05
5.67446e-05
-3.69136e-05
-1.51399e-05
8.69036e-05
6.86067e-05
6.22834e-06
4.16541e-05
2.36374e-05
2.60695e-05
0.000121307
-3.55702e-05
-2.05775e-05
2.75007e-05
5.94511e-05
8.97981e-06
1.84992e-05
8.66936e-05
-5.82667e-05
-3.06987e-07
2.65903e-05
-1.44094e-05
-2.21962e-05
-3.95463e-05
0.000128655
-4.29607e-06
2.10484e-05
-3.85133e-05
0.000102293
2.14383e-05
2.40523e-05
4.18613e-05
-0.000104899
2.47046e-05
-6.30287e-05
-2.51194e-05
-2.38867e-05
5.12259e-05
-2.60447e-05
-7.57641e-05
4.98929e-05
-6.60461e-05
-4.29002e-05
2.33413e-05
-5.9909e-05
-8.0273e-05
3.002e-06
-4.24263e-05
4.66197e-06
1.08916e-05
-2.15756e-05
-4.06057e-06
-5.82075e-05
-6.74934e-05
-0.000106138
-1.79197e-05
-2.00458e-05
-5.72718e-05
-2.5276e-05
7.73044e-06
-3.07406e-05
-8.53874e-05
-3.53893e-05
-8.36095e-06
2.74421e-05
-7.95678e-05
-6.67479e-05
2.31332e-05
-0.000103178
-3.37883e-05
1.9834e-05
-8.20331e-05
-5.15867e-05
-4.38411e-05
8.67306e-06
3.55998e-05
-2.47126e-05
4.87443e-06
-0.000112384
-3.15171e-05
3.88793e-05
-3.39409e-05
-6.56131e-05
-4.11929e-05
-3.17376e-05
2.98235e-05
-2.85315e-05
-3.54565e-05
-2.34859e-05
-0.00011611
1.48106e-05
-3.37933e-05
4.56308e-05
-5.1269e-05
-5.72853e-05
-3.73458e-05
-3.01473e-05
-6.05671e-05
-1.00287e-05
-7.9634e-05
-0.000109192
1.21046e-05
-4.39818e-05
9.01707e-06
-1.84358e-05
1.72417e-05
-5.13538e-05
-1.04338e-05
4.76097e-05
-2.54936e-05
5.74091e-05
2.1595e-07
-3.24124e-05
-5.04445e-05
-8.22558e-05
2.84824e-05
2.44664e-05
-6.16941e-05
-0.000158637
-4.16981e-05
-6.58911e-08
-1.6914e-05
8.77387e-06
5.33131e-05
3.15614e-06
-1.07945e-05
2.47145e-05
-5.96582e-06
3.43232e-05
-2.73115e-05
-6.84708e-06
-1.89478e-06
-4.36439e-05
-0.000106617
-3.96519e-05
-2.96775e-05
-3.55599e-05
1.64221e-05
-5.91241e-05
-4.2719e-05
-1.06706e-06
-6.00005e-06
5.43521e-05
-3.54237e-05
-7.13797e-05
-7.13185e-05
4.01698e-05
1.15475e-05
-5.23513e-05
-1.11543e-05
9.64559e-06
3.18992e-05
-8.5775e-05
1.39616e-05
-6.13795e-05
-7.74162e-06
-3.48628e-05
-1.67103e-05
-4.55655e-05
-6.96026e-05
1.70247e-05
-4.88108e-05
-2.07964e-05
1.59816e-05
-1.05535e-05
-2.35445e-05
-1.24414e-05
-3.31047e-05
-4.60123e-05
-1.3358e-05
-4.22453e-05
-8.32288e-06
-5.94475e-05
-7.82579e-05
8.69669e-06
-2.01969e-06
-8.38251e-05
1.05489e-05
-3.22353e-05
-4.36764e-05
-0.000117682
-8.72579e-06
-3.99576e-05
-3.83075e-05
-7.16745e-05
9.37073e-06
3.00048e-05
-1.70406e-05
-2.39993e-05
-1.85519e-06
-5.11226e-05
-2.02564e-05
-8.13483e-05
-6.40943e-05
3.62427e-05
-8.02712e-05
-7.56339e-06
2.37459e-05
2.21168e-05
-5.2781e-05
-2.42493e-06
3.60704e-05
-9.46559e-05
1.02371e-05
-2.21478e-05
3.97034e-05
-4.13511e-05
-2.55479e-05
-5.70074e-06
3.04062e-05
-6.90699e-05
-4.77674e-05
3.67505e-05
-4.79678e-06
2.05939e-06
-4.86562e-05
-0.000107547
-6.60245e-05
-2.66004e-05
-2.24797e-05
-9.32941e-06
-1.88572e-05
-0.00010145
6.32252e-06
3.69591e-05
4.61086e-06
-1.08489e-05
-2.36545e-05
-8.50841e-05
-3.90904e-05
4.811e-05
-6.9777e-06
-7.51889e-05
-6.46278e-05
-4.37897e-05
3.07566e-05
-5.53512e-05
1.83121e-06
-5.12167e-05
9.71673e-05
1.17978e-05
-4.14067e-05
-5.22416e-05
-4.83999e-05
-4.74e-05
3.21254e-05
-3.5083e-05
-7.29869e-05
1.6978e-06
-2.53875e-05
-1.98884e-05
4.50539e-06
-1.73198e-05
7.05678e-05
5.70896e-05
-6.70663e-05
-3.48977e-05
-2.73383e-05
-7.02046e-05
-2.06061e-05
2.42679e-05
8.58863e-05
-8.70338e-05
6.93463e-06
-4.34539e-05
-3.627e-05
6.90322e-05
3.75879e-05
-6.27586e-05
-4.99096e-06
2.55418e-05
-5.11213e-05
2.26249e-05
-1.3483e-05
-4.80209e-05
-1.98234e-05
3.05474e-06
3.73247e-05
3.42681e-05
-1.23484e-05
-2.31676e-05
-0.000132199
-1.6694e-07
-7.60634e-06
5.12585e-05
-7.35291e-06
-7.36315e-05
5.01703e-06
-3.30426e-05
-1.9907e-06
5.00254e-05
-7.79773e-06
-2.3389e-05
-8.48016e-06
1.05426e-06
-1.92295e-05
7.13239e-05
-5.15231e-05
7.82253e-06
3.11632e-05
6.53431e-05
-4.67901e-05
-2.90641e-05
-1.14905e-05
-2.49571e-05
-9.34281e-05
-2.04818e-05
3.51591e-05
4.88629e-05
3.64076e-05
-1.64526e-05
3.77697e-05
6.14582e-05
-4.75242e-05
4.48449e-05
4.40089e-05
9.82301e-06
-5.10868e-05
1.23067e-05
2.3444e-05
7.04301e-05
4.96684e-05
-3.57152e-05
2.25287e-05
5.27361e-06
-2.51164e-05
4.80086e-05
3.40401e-05
2.11629e-05
-2.89198e-05
-7.34255e-05
2.16749e-05
3.48731e-05
1.4212e-06
-4.63354e-05
1.81724e-06
-1.65711e-05
5.22439e-05
1.92712e-05
-4.251e-05
-9.05945e-05
6.88434e-06
2.94282e-05
9.43244e-06
3.90755e-05
-4.01766e-05
2.79769e-05
-3.30702e-05
9.02754e-05
1.87057e-05
2.19357e-05
-2.38951e-05
3.89217e-05
7.95068e-05
-1.42981e-06
-1.07868e-05
-4.3123e-05
-5.63422e-05
3.6556e-05
5.69155e-06
-2.97655e-05
3.18501e-05
-3.75099e-05
-1.97684e-05
6.36964e-05
5.06418e-05
-4.80586e-05
-4.18769e-05
-9.31241e-06
-2.63561e-05
-1.33656e-05
5.0945e-05
7.41072e-05
-1.38809e-05
-5.52125e-05
-6.02389e-05
2.25473e-05
4.01653e-05
-3.56468e-05
4.60853e-05
6.04022e-05
1.00423e-05
-2.72853e-05
-6.84023e-05
1.03848e-05
-3.90665e-05
-6.67311e-05
1.89326e-05
-3.86643e-05
-7.26082e-05
1.55345e-05
3.44657e-05
-9.18144e-06
-2.52385e-05
3.49989e-05
6.71942e-05
-7.81403e-06
-2.34852e-05
1.90872e-05
-3.45567e-05
-3.24659e-06
3.17618e-05
-4.3362e-05
-4.44566e-05
-1.29163e-05
6.19071e-05
-1.54721e-05
-1.92423e-05
-9.33302e-07
1.07798e-05
-2.67865e-05
6.43287e-05
6.2841e-07
3.16113e-05
-3.4544e-05
-2.02104e-05
3.29816e-05
-8.92975e-06
-5.33782e-05
-6.58388e-05
-1.97741e-05
2.38302e-06
3.65479e-05
8.36793e-06
-1.87824e-06
1.48285e-05
-2.75737e-05
4.24773e-05
2.79524e-05
9.69113e-05
6.65832e-05
1.94263e-05
1.45668e-05
-1.36638e-05
5.90176e-05
5.77695e-05
-3.53305e-05
8.65556e-05
-1.88479e-05
-2.10226e-05
-5.39366e-05
1.12338e-05
-1.22988e-05
7.03161e-05
-1.07866e-05
6.14929e-06
5.77939e-05
3.47517e-05
-3.56392e-05
-5.85546e-06
4.38266e-05
2.9995e-05
1.48882e-05
3.0942e-06
-6.2997e-05
1.44141e-05
-9.34469e-05
4.10881e-05
-3.34159e-05
-7.29722e-05
6.78666e-06
-4.31377e-05
3.26067e-05
-5.40697e-05
-3.51889e-05
-7.38096e-06
-3.46783e-05
7.7812e-06
5.28593e-05
1.66991e-05
-1.61491e-06
7.61887e-05
-2.89571e-06
5.27897e-05
3.30997e-05
2.69054e-05
3.20113e-05
-4.14018e-05
-7.91216e-05
6.70331e-06
-3.71062e-05
3.38652e-07
3.12879e-05
2.55891e-05
4.62432e-05
-7.34464e-06
3.85572e-05
-1.82486e-05
8.604e-05
-3.51762e-05
-2.42107e-05
-2.44785e-05
3.96877e-05
3.96362e-05
-5.5962e-06
-1.59824e-05
5.26488e-05
-3.12829e-05
-9.51299e-06
1.32085e-05
3.03084e-05
4.01441e-05
-6.21304e-05
6.55756e-06
-4.02805e-05
7.68158e-05
-2.30575e-05
2.42749e-06
-2.36237e-05
-7.6571e-06
1.05577e-06
-7.58464e-05
1.89058e-05
4.24918e-05
2.73343e-06
-4.68811e-05
-0.000111356
2.32969e-05
1.92826e-05
1.66974e-06
4.1142e-05
-1.26259e-05
3.11469e-06
-2.1539e-05
-7.41892e-05
3.57798e-05
1.81666e-05
-4.43208e-05
1.38062e-05
2.49421e-05
-1.40064e-05
-5.45268e-05
-1.59672e-05
4.8483e-05
-4.49945e-06
-0.000139603
5.79744e-05
3.08058e-05
0.000100899
-3.72751e-05
3.8272e-05
1.96728e-05
-2.19458e-05
-3.16998e-05
-3.15026e-05
5.79793e-05
8.84752e-05
-9.06747e-06
-5.99886e-05
9.21823e-06
8.46398e-06
-1.86265e-08
-2.07854e-05
-3.90372e-05
0.000130274
-3.43212e-05
-4.7052e-05
5.37114e-05
-2.7963e-06
2.82272e-06
-3.7919e-05
-6.05411e-05
4.75424e-05
4.84362e-05
-1.75373e-05
3.74633e-05
-5.19105e-05
4.18174e-05
3.39493e-05
-6.99727e-05
2.73657e-05
3.88057e-05
1.6781e-05
-5.26784e-05
6.28688e-05
-2.19624e-05
-4.3101e-05
-7.4039e-06
-2.66788e-05
4.25465e-05
3.64974e-06
2.75729e-05
-4.73874e-05
-6.43707e-06
3.03098e-05
-2.26299e-05
-8.19347e-05
-4.95824e-05
1.3624e-05
3.3637e-05
4.53526e-05
-3.78168e-05
6.72047e-05
-2.02062e-05
-6.23041e-05
4.74694e-05
4.62766e-05
1.24054e-05
3.82881e-05
2.15032e-05
5.87143e-05
-6.50003e-05
-4.25669e-05
-1.34123e-05
4.39064e-05
4.78701e-05
-2.23203e-05
-6.05178e-05
1.98314e-06
-2.43715e-06
-3.00119e-05
1.4892e-05
2.92043e-05
7.28867e-05
7.06638e-05
-3.5825e-05
-0.000140627
2.58457e-05
1.20315e-06
-2.88254e-05
-4.69699e-05
5.72428e-05
3.12582e-05
1.75562e-05
-0.000107817
-1.58473e-05
1.13321e-05
3.99523e-05
3.28132e-05
-4.30105e-05
3.2036e-05
3.74884e-05
-3.91935e-05
2.83311e-05
3.71941e-05
-1.37137e-05
3.56368e-05
-5.44162e-05
8.30448e-05
3.03241e-05
-1.94272e-05
-2.67292e-05
6.84279e-05
4.12175e-05
-2.91597e-05
3.35349e-05
3.9214e-05
3.68372e-05
-3.48373e-05
-2.81513e-05
1.41672e-05
3.5295e-05
-7.15662e-05
-2.16159e-05
4.6005e-05
3.64995e-05
2.31864e-05
-3.12356e-05
-7.13487e-05
2.25477e-05
-3.52731e-05
7.69858e-05
-4.16432e-05
-1.37857e-05
7.45137e-05
-5.40667e-05
4.00376e-06
-1.77845e-05
-5.58047e-05
2.0123e-05
5.96e-06
5.05822e-05
6.3116e-05
-6.58254e-05
8.14188e-05
-4.32241e-05
-2.44337e-05
2.67205e-05
4.39421e-06
9.56748e-06
7.65512e-06
4.39072e-06
-4.22162e-05
2.17025e-05
1.01277e-05
-1.56355e-05
-7.88141e-05
-2.79716e-05
-7.33184e-06
2.62831e-05
6.22892e-06
2.38396e-05
-8.04127e-06
5.26161e-05
3.00962e-05
-3.07956e-05
-8.68591e-05
1.14746e-05
3.8733e-05
1.11605e-05
-2.85619e-05
-9.12487e-06
-2.48128e-06
2.21184e-05
-3.23006e-06
2.53448e-05
2.25469e-05
3.20964e-05
-2.0874e-05
-3.06289e-06
6.05534e-06
-3.41411e-06
3.49666e-05
-2.44871e-05
5.34742e-05
1.96631e-05
1.27885e-05
-1.15687e-05
2.92528e-05
2.87057e-06
3.39581e-05
-1.87168e-05
-2.8864e-06
-6.9041e-05
2.46685e-05
-5.03904e-06
-1.26839e-05
2.05984e-05
-2.63399e-05
-2.66172e-06
-3.02468e-05
-7.38937e-05
-1.16548e-05
0.000124287
-9.67176e-05
2.30561e-05
4.0888e-05
1.12084e-05
1.89698e-05
2.29747e-05
-6.50403e-05
-1.85565e-05
-3.58939e-05
9.88774e-06
-2.25086e-05
-0.000114619
5.06444e-05
-0.000120175
-5.2155e-05
0.000129995
-2.85548e-05
-3.29316e-05
1.39812e-05
-3.08815e-06
-4.5842e-06
-6.87175e-05
5.00935e-07
2.54061e-05
-3.06808e-05
-4.83699e-05
-2.09835e-05
3.77462e-05
3.99075e-05
1.09905e-05
-3.37753e-05
2.43071e-05
4.91921e-05
4.58609e-05
-7.1392e-05
-6.57424e-05
-4.48683e-05
5.14662e-05
2.45112e-06
-1.54681e-06
-6.96708e-05
3.41912e-07
-1.04235e-05
6.89365e-06
-2.29038e-05
-2.35485e-06
-3.06225e-05
3.27412e-05
-3.22657e-06
-1.03371e-05
-2.52568e-05
2.84621e-05
9.52233e-05
-3.02617e-05
3.21707e-05
4.43816e-05
-4.54086e-05
-0.000101102
-3.30772e-05
0.00011101
6.2544e-05
-5.2828e-05
-0.000107186
-1.18125e-05
6.85672e-05
3.46114e-05
-5.40467e-05
-5.21382e-05
4.75178e-05
-4.06371e-05
-0.000119436
6.12031e-05
-1.81564e-05
-3.1173e-05
0.000105493
-4.54732e-05
-9.29444e-05
-5.38452e-05
9.50531e-06
-5.54988e-05
1.67227e-05
4.28141e-06
-7.23689e-05
6.52415e-06
4.59243e-05
6.77758e-06
-2.0666e-06
5.32216e-05
2.83378e-05
-3.7598e-05
-4.8551e-05
0.000104193
-1.6281e-05
-5.7274e-06
-2.96995e-05
-2.67255e-06
-4.58126e-05
8.22754e-06
-1.31112e-05
-4.38883e-05
-3.36709e-05
-5.49548e-05
4.80604e-05
-3.43903e-05
5.50937e-05
-3.26773e-05
-2.49943e-05
-9.6095e-06
3.26963e-05
-4.34385e-05
8.21739e-05
3.99025e-06
1.01078e-05
-2.64167e-05
-1.68569e-06
5.18318e-05
-5.05236e-05
7.65339e-05
-2.69974e-05
-2.84482e-05
5.25336e-06
1.91292e-05
5.7527e-05
-1.55072e-05
1.41473e-05
1.54796e-05
9.67539e-05
-2.60595e-05
2.79758e-06
-6.86486e-05
-4.36418e-06
5.35545e-06
-6.23055e-07
-1.12276e-05
2.76116e-05
-7.06451e-05
2.38863e-05
3.64641e-05
-5.86081e-06
-1.47326e-05
5.85361e-05
-1.46346e-06
5.05825e-07
-8.36374e-06
-6.68825e-05
-7.45861e-06
-5.66775e-05
5.49139e-05
-1.55676e-05
-6.51164e-05
1.9397e-05
-2.5009e-05
1.49547e-05
4.44496e-05
-8.87841e-06
-5.64922e-05
-7.07048e-05
-8.34139e-06
-2.96303e-05
-2.15252e-06
-1.83218e-05
-1.89315e-06
-0.000102778
8.74791e-06
3.24824e-05
3.07963e-05
-0.000103662
-3.61563e-05
2.02424e-05
8.39112e-05
4.75254e-06
-1.31456e-05
3.19693e-05
7.1479e-07
-3.71367e-05
-7.51379e-05
-6.92118e-05
-2.21259e-06
-7.09704e-05
1.36741e-06
-4.37519e-05
5.21012e-05
-3.20335e-05
-2.1123e-05
9.38273e-06
-1.06078e-06
4.85138e-06
-2.59293e-05
5.72978e-05
-2.03844e-05
4.02208e-05
1.71227e-05
-4.36114e-05
4.79096e-06
-4.09902e-05
-3.49362e-07
2.30944e-05
-3.31625e-05
1.34483e-05
1.23588e-05
-2.61037e-05
-4.63815e-05
1.17682e-05
-4.40205e-05
0.000100773
4.16168e-05
5.95758e-05
5.7274e-06
3.63565e-06
3.7217e-05
-2.83872e-05
-2.65328e-05
-3.87033e-05
-3.32447e-05
-2.94519e-06
-4.8345e-06
-7.42384e-05
-9.21185e-05
-4.12923e-05
9.36043e-05
1.79689e-05
2.46143e-05
5.07899e-05
-3.90916e-05
-4.86937e-05
-6.07775e-05
2.91873e-05
-7.01526e-05
2.39774e-05
5.71006e-05
1.43808e-05
-8.5445e-05
6.48925e-05
5.64102e-06
1.15008e-05
-0.000120717
5.33743e-05
7.36075e-05
5.39119e-06
1.38733e-05
1.18413e-05
-9.65176e-06
3.66956e-05
-3.03435e-05
4.71818e-05
6.17246e-05
-4.68071e-06
-4.0433e-05
-2.984e-05
4.83403e-06
-1.19186e-06
4.36956e-05
-1.84926e-06
-1.13774e-05
-1.70612e-05
7.82475e-05
-4.5835e-06
1.79145e-05
-3.62854e-05
-7.78638e-05
7.38346e-05
-9.19304e-05
-5.20796e-06
2.09288e-05
2.30619e-06
7.05891e-05
3.83817e-05
7.42089e-06
5.50149e-05
-1.01449e-05
4.60946e-05
-1.68376e-05
-5.88745e-05
-4.91899e-05
5.14216e-05
5.45883e-05
-1.98536e-05
5.81006e-05
3.02009e-05
1.38805e-05
2.24964e-05
6.25565e-05
6.90226e-06
-8.80082e-05
-1.34255e-05
-5.00772e-06
4.87004e-05
5.99254e-05
6.30913e-05
1.42667e-06
2.14428e-05
-2.66382e-05
-9.90403e-06
-6.22045e-05
-1.60282e-05
3.25945e-05
-3.85356e-05
-1.90407e-05
5.31541e-05
-2.28164e-05
1.54098e-05
-4.23562e-05
-5.64731e-07
-5.11486e-05
-1.0791e-05
-0.000114607
2.0635e-05
1.91701e-05
7.28535e-05
2.73278e-05
-4.94907e-05
5.05778e-05
5.2787e-05
6.41986e-05
-7.99005e-06
4.43967e-05
-4.86509e-05
-2.58863e-05
-3.12885e-05
9.76643e-05
-4.46034e-05
-4.871e-05
2.70447e-05
-5.04585e-05
1.36551e-05
-9.01838e-05
-0.000131356
6.04797e-05
5.67494e-05
-1.7009e-05
2.47724e-05
-9.10868e-06
5.16704e-05
-8.06586e-05
3.82912e-05
3.78347e-05
1.59071e-05
-7.97643e-06
-6.65523e-06
3.57418e-05
3.13772e-05
-9.32616e-05
-4.72957e-05
-9.38082e-05
-4.97695e-05
6.84749e-05
-3.54389e-05
9.14535e-06
-3.66225e-05
3.87214e-05
1.69345e-05
4.47605e-05
-5.40495e-05
2.94942e-05
6.61317e-05
1.2241e-05
-6.64284e-05
1.13319e-06
1.48166e-05
-1.3693e-05
6.0895e-05
-9.09087e-07
7.8931e-05
9.09693e-06
5.2616e-05
-9.66366e-05
3.41134e-05
6.60517e-06
-1.27822e-05
-4.43456e-05
-2.06708e-05
3.15113e-06
-9.3074e-07
-6.30604e-05
-0.000100798
-4.15874e-05
-9.15085e-05
-4.81858e-05
5.62922e-05
-1.52455e-05
-5.22907e-05
-2.41199e-05
-1.08292e-05
-4.57695e-05
-4.23093e-05
1.19057e-05
2.83613e-05
-1.41363e-05
-5.28243e-05
-6.13476e-05
1.77321e-05
1.07328e-05
-2.08279e-05
5.96314e-05
1.79047e-06
2.51201e-05
-2.36357e-05
5.88675e-05
3.18959e-05
4.76104e-05
-7.31895e-05
7.22461e-05
-0.000100922
-6.24044e-06
6.49313e-05
8.48924e-06
3.2307e-05
-3.30736e-06
-4.32205e-05
2.37813e-06
1.99968e-05
-1.27293e-05
9.59355e-06
3.61401e-05
2.75422e-05
6.92136e-05
-2.72389e-06
-6.32239e-05
-6.14626e-06
-7.61065e-06
-1.02115e-05
4.45029e-05
5.20144e-06
2.67312e-05
-6.62974e-06
-4.79864e-06
-2.94803e-05
1.43553e-05
5.68992e-06
6.79196e-05
9.01218e-06
3.43913e-05
1.84253e-05
1.29044e-05
-4.46519e-05
3.45933e-05
3.36549e-05
1.93832e-06
-1.88097e-05
4.46875e-05
-5.23895e-05
6.75363e-05
7.74653e-05
6.37164e-06
8.13848e-05
-3.18113e-05
2.20671e-05
-1.73562e-05
-2.87801e-05
-6.8658e-05
1.19235e-05
2.47917e-05
1.23706e-05
-3.48671e-05
2.16779e-05
-2.2075e-05
-3.52506e-06
1.23346e-05
1.70956e-06
2.97127e-05
-6.88564e-05
-1.33736e-05
9.18962e-05
-3.43516e-05
1.47278e-05
-1.23638e-05
4.94565e-05
2.42064e-05
-4.44686e-05
5.05935e-05
0.000106778
9.66932e-05
6.52507e-05
8.90112e-07
-7.20681e-06
-1.14563e-05
6.66906e-05
-5.44765e-06
4.01796e-05
-2.3398e-05
4.17557e-05
-3.41276e-05
-2.13977e-05
6.28084e-06
-2.62641e-05
3.58208e-05
-8.93138e-05
4.69461e-05
-3.57556e-05
3.30252e-05
2.34644e-05
-9.97119e-05
2.2134e-05
3.57019e-05
-1.87461e-05
2.13265e-05
-6.7824e-05
2.7162e-05
-5.16974e-05
5.68142e-05
4.88433e-05
-1.74809e-05
3.80412e-05
4.54165e-05
1.17876e-05
-8.37981e-06
2.07499e-05
-2.05642e-05
5.28255e-05
-7.57059e-05
-4.26266e-05
-7.67317e-06
2.04984e-05
-1.54349e-05
-3.12328e-05
1.17399e-05
6.21649e-05
4.88083e-05
4.33624e-06
-0.000127571
-5.02239e-05
-6.8667e-05
-6.60995e-05
3.09136e-05
7.6151e-05
-7.01351e-05
-7.03055e-06
9.28517e-06
4.82399e-05
3.83984e-06
8.47341e-06
-6.75764e-05
-1.85833e-05
1.21739e-05
-8.66805e-06
-3.19516e-05
-1.42831e-05
3.18373e-06
7.33056e-06
1.82408e-05
2.5651e-05
-6.78838e-05
-4.71412e-06
3.49282e-05
-5.05331e-05
1.07932e-05
-1.50145e-05
-1.6305e-05
-2.95391e-05
9.53891e-05
2.63908e-05
-1.76688e-05
-2.15014e-05
-1.27997e-05
8.03277e-06
-1.35805e-05
2.63904e-05
-7.18527e-06
-1.90845e-05
2.17278e-05
5.39327e-05
-9.03435e-05
5.79038e-05
-1.44778e-05
-1.46058e-05
-3.83224e-05
-4.54382e-05
2.61614e-05
5.74824e-05
2.07161e-05
1.8059e-05
2.6194e-05
-7.22148e-06
-2.65971e-05
2.3871e-05
-3.8179e-05
-3.29993e-05
2.86615e-05
4.19584e-06
5.34144e-05
-1.29021e-05
-4.54625e-06
9.10496e-05
1.63321e-05
1.69137e-05
-4.63272e-05
3.55744e-05
-3.91717e-05
2.29462e-05
1.72229e-05
3.0864e-06
6.80581e-05
6.72807e-05
-1.70238e-05
-7.54709e-06
4.55864e-05
-1.23878e-05
-6.61239e-06
0.000122597
3.26278e-05
1.82125e-05
2.49492e-05
-5.22538e-05
-2.22388e-05
-5.70167e-05
1.30455e-06
7.69075e-06
2.41782e-05
1.07717e-05
-5.20681e-05
1.76703e-05
6.4493e-05
-6.11891e-05
5.44073e-05
-4.49324e-05
-7.05203e-05
6.23148e-06
3.27916e-05
4.70878e-05
1.3276e-06
1.32956e-05
-7.78602e-05
-2.81829e-05
-6.89295e-06
0.000112601
3.68481e-05
-3.34254e-05
4.8563e-05
3.18346e-05
1.14889e-05
6.94898e-05
0.00013327
-7.38587e-05
-4.20364e-05
-1.6897e-05
2.04113e-05
8.13231e-06
-1.95545e-05
3.47553e-05
5.0591e-05
-6.30396e-05
-4.22688e-05
1.79623e-05
5.70345e-05
-6.66711e-07
2.83979e-05
-3.47801e-05
-8.23166e-05
-3.16935e-05
-5.51019e-05
-1.69486e-05
6.43997e-05
-5.57768e-05
5.25214e-05
-0.00011234
-7.10652e-05
-1.52236e-05
-1.60276e-05
-3.59303e-05
5.28323e-05
4.40277e-05
-4.75475e-06
-6.05781e-05
-2.03253e-05
1.72125e-05
2.40918e-05
-2.15005e-05
-3.80275e-05
1.84209e-05
-5.2297e-05
-1.48045e-05
-9.04265e-05
-1.86135e-05
-1.40986e-05
0.000121307
-2.54706e-05
5.25204e-05
3.79481e-05
3.11942e-05
-3.8531e-05
-5.10283e-06
-4.49663e-05
2.62945e-05
1.1243e-05
-1.86055e-05
1.74432e-05
-3.76214e-05
8.71113e-06
-3.17955e-05
7.1465e-05
-7.47017e-05
0.000101809
5.19643e-05
3.18051e-05
1.94153e-05
4.63659e-05
-3.00515e-06
1.62398e-05
7.99985e-05
3.67616e-06
-1.37991e-05
-5.21087e-05
-5.62181e-05
2.68223e-05
-3.78018e-05
-4.78231e-05
2.88635e-05
-2.68989e-05
-1.16545e-05
-5.02802e-05
3.10763e-05
-2.00592e-05
3.81091e-05
-8.7174e-05
-4.69058e-05
1.67192e-05
4.9244e-05
9.12824e-06
1.42609e-06
-6.69421e-05
-7.27301e-05
-1.43618e-05
-9.74524e-06
-1.56974e-05
2.6738e-05
-9.21225e-05
-5.88649e-05
-1.2588e-05
5.10606e-05
-8.97483e-05
7.86011e-05
1.30894e-05
1.51682e-05
-0.000114672
-4.19716e-05
1.06477e-05
8.84155e-05
-6.75302e-06
-6.93044e-06
1.08082e-05
-9.15194e-05
-1.49589e-05
1.07787e-05
5.1809e-05
-3.28287e-05
4.25936e-05
9.43069e-06
7.85687e-07
4.03608e-05
-3.83519e-06
2.66731e-05
-2.21869e-05
6.10948e-07
2.16416e-06
1.83089e-05
-2.01635e-05
-7.52344e-05
-8.20159e-05
-4.08834e-05
3.06888e-05
3.11451e-05
-1.7603e-05
-1.14893e-05
3.87501e-05
9.27434e-06
1.17535e-05
-4.44872e-05
-5.2748e-05
-4.26521e-05
9.60717e-05
-3.91065e-05
-6.17562e-05
-4.51251e-05
4.71959e-06
-4.15777e-05
-1.74774e-06
2.5766e-05
4.8114e-05
-3.50768e-05
2.89143e-05
3.42632e-05
2.19487e-05
-2.03152e-05
-2.84298e-05
2.95843e-05
6.23259e-05
1.81489e-05
-1.77093e-05
-4.22898e-05
-3.51807e-06
6.32225e-05
3.54717e-06
7.63172e-06
-5.29422e-06
1.01703e-05
2.74981e-05
2.9136e-05
-2.60756e-05
-5.97398e-05
8.67877e-05
3.29309e-05
-1.45725e-05
-1.42368e-05
5.72903e-05
3.8431e-06
9.81889e-05
0.000121367
-2.85943e-05
2.49975e-05
7.87154e-06
-1.86719e-05
-1.70156e-05
-7.32371e-05
0.000112081
-1.25974e-05
-6.01778e-05
7.86281e-06
3.08843e-05
9.78378e-06
7.84127e-06
1.71356e-05
4.8778e-08
-2.67224e-05
-2.56808e-05
-4.13364e-05
-4.55834e-05
-1.76238e-05
-7.76548e-06
-4.82694e-05
7.13973e-05
1.64236e-05
3.01732e-05
-3.196e-05
1.39843e-05
-1.39403e-05
-1.55894e-05
4.47652e-06
-1.65859e-05
8.27655e-05
5.56016e-05
5.67257e-06
3.54117e-05
2.86242e-06
-1.63057e-05
2.07492e-05
9.63197e-06
-1.45014e-05
-4.88883e-05
-4.07484e-05
-9.69227e-06
4.12576e-05
-2.15801e-05
-3.41528e-05
5.64964e-05
-1.37319e-05
-5.04195e-05
3.84741e-05
-2.33622e-05
-1.19593e-06
-5.94468e-05
5.9522e-06
6.40076e-05
-7.39719e-05
-2.23713e-05
-4.28921e-06
-7.43155e-05
-1.58098e-05
5.60064e-05
-2.41016e-05
5.20151e-05
4.58724e-05
-3.16428e-05
0.000122277
2.8997e-05
1.20705e-05
-2.74093e-05
-3.44679e-05
-3.20198e-05
5.98461e-05
4.27904e-05
-2.54267e-05
-1.62863e-05
4.25265e-05
4.55985e-05
-7.08051e-05
-4.53842e-05
-1.75913e-05
6.00135e-05
3.70813e-05
4.36975e-05
-7.64534e-06
2.17551e-05
1.48432e-05
1.47808e-05
3.49525e-05
1.44986e-05
-7.17354e-05
5.90796e-05
3.93528e-05
-1.62125e-05
4.74525e-05
-1.84565e-05
-3.84231e-05
8.46089e-05
5.78981e-05
5.2993e-05
-2.82945e-05
-1.4026e-05
-3.38187e-06
6.56872e-05
1.70164e-05
1.81661e-05
-1.45183e-05
-3.22155e-05
8.30134e-06
5.70645e-05
3.72091e-05
6.89622e-05
3.92867e-05
3.07863e-05
-1.59343e-05
4.175e-05
8.47317e-06
-3.21828e-05
-1.07547e-05
-1.45927e-05
5.3932e-05
1.21889e-05
2.11234e-05
-2.64752e-05
1.12992e-05
-2.39077e-05
-1.44512e-05
1.0998e-05
-7.73475e-06
4.69014e-06
1.6859e-05
6.67061e-05
1.57987e-05
-0.00010758
-8.24992e-05
6.5231e-06
-5.85071e-05
5.17322e-05
1.84861e-05
1.66779e-05
-7.07677e-05
5.68526e-06
-1.86226e-05
-4.33436e-05
5.83278e-05
-4.15361e-05
-7.76739e-05
-1.33206e-05
-3.7475e-05
-1.10012e-06
5.06302e-05
3.4345e-05
5.21396e-05
2.95313e-05
4.71441e-05
-2.02373e-05
0.000134813
5.51661e-05
-3.82706e-05
-1.1221e-05
0.000111733
1.12795e-06
-1.38339e-05
-2.07325e-05
-1.05342e-05
5.7508e-06
2.51087e-05
-6.47182e-05
1.22283e-06
0.00011825
2.02318e-05
-6.96788e-05
-8.34577e-05
9.06892e-05
4.29545e-05
-6.09942e-05
-2.33622e-06
4.52378e-06
-2.48619e-05
-7.49839e-05
-6.30168e-06
3.39788e-05
6.28865e-05
-2.65893e-06
-2.97547e-05
-6.6773e-05
-1.08313e-05
7.42287e-06
3.03185e-05
-1.26916e-05
1.26484e-05
-3.24749e-05
-1.5403e-05
4.65963e-05
-6.06407e-07
-7.33231e-05
-3.61166e-05
3.19348e-05
5.0712e-05
5.5205e-05
-3.86608e-05
-2.71013e-05
-1.73156e-06
4.00438e-05
-1.28828e-05
1.1524e-05
2.75377e-05
1.51002e-05
2.02358e-05
3.27817e-05
-0.000103584
-2.37202e-05
5.62994e-05
-3.56046e-05
-8.56416e-05
0.000101617
-2.90701e-05
2.15792e-05
-5.19508e-05
6.29341e-06
-5.9559e-05
3.80224e-06
-4.01156e-05
2.21787e-05
-9.73791e-06
6.35824e-05
-2.76128e-05
-2.54386e-05
9.06728e-05
-5.5589e-05
-3.51437e-05
1.47806e-05
-2.30938e-05
3.46848e-05
-4.10145e-05
-1.09316e-05
2.98406e-05
3.45643e-05
-4.78463e-05
-5.78742e-05
-3.72985e-05
3.58617e-05
-1.02351e-05
-1.76752e-05
3.83473e-05
4.55067e-06
-3.0726e-05
-6.31746e-05
6.19085e-06
-5.68883e-05
0.000120349
-0.000117728
-6.8087e-05
1.01875e-05
-1.02158e-05
2.82162e-05
-1.96019e-05
-6.25616e-06
3.50749e-05
9.93116e-06
-5.9648e-05
5.40573e-05
-2.97576e-05
-7.25966e-07
-9.39076e-06
-2.64799e-05
5.89004e-05
9.35838e-05
7.95017e-05
-1.68919e-05
-6.82934e-05
-7.77041e-05
4.75622e-05
-1.31771e-06
1.17448e-05
5.16309e-05
-6.31509e-05
2.2143e-05
3.45724e-05
-3.89622e-05
4.92729e-05
9.85328e-06
-2.73689e-05
-7.18012e-05
-2.20712e-06
9.41218e-06
5.68596e-05
-2.01393e-05
-8.62195e-06
7.08993e-06
9.57283e-07
-2.91982e-05
-3.67723e-05
9.87202e-07
-7.08341e-06
-7.77071e-05
4.07125e-05
2.28037e-05
-2.33531e-05
-2.82733e-05
6.35535e-06
-3.10614e-05
-2.37782e-05
5.87653e-05
3.77754e-05
-8.8855e-05
1.88745e-05
2.8215e-05
2.42067e-05
-1.97268e-05
3.13716e-05
2.67719e-05
-2.78912e-05
-1.14411e-05
4.39794e-05
-1.84719e-05
6.2898e-06
-9.4159e-06
3.67077e-05
-1.65388e-05
-2.21902e-05
-3.26346e-05
2.11541e-05
-9.05287e-05
-2.25271e-05
7.17794e-06
-1.67806e-05
-5.12954e-05
-4.15267e-05
3.02576e-05
1.87586e-05
1.34518e-05
6.79974e-05
0.000103677
-2.68696e-05
-5.62214e-05
-7.36862e-06
-8.72975e-06
-8.22078e-06
-0.000119192
3.0766e-05
9.97081e-05
7.93554e-05
2.35229e-05
2.89478e-06
3.23561e-05
6.61938e-06
-1.27405e-05
-1.12369e-05
3.50131e-06
6.08938e-05
-6.73498e-06
5.99329e-05
-9.1081e-06
-4.93436e-05
-1.2501e-05
-1.79213e-05
3.41783e-05
-3.37977e-05
7.39587e-06
5.94542e-05
0.000102923
1.58972e-05
2.0744e-06
6.60843e-05
-5.49527e-05
-6.42203e-05
4.83636e-06
5.86052e-05
-3.53623e-05
-0.000113618
-3.21853e-05
8.25233e-06
3.03732e-05
4.09479e-06
1.25882e-05
-2.57911e-05
4.03076e-06
-1.99423e-05
-0.000115459
-8.30297e-06
2.34324e-05
1.67681e-05
-9.89949e-06
-1.77937e-05
3.41064e-05
5.38379e-05
-8.89762e-07
-3.26859e-05
-1.44825e-05
1.08392e-05
2.86296e-05
1.41957e-05
-1.1322e-05
4.36341e-05
-9.70042e-06
4.36601e-05
-6.26058e-06
-6.49599e-05
8.33401e-05
7.3734e-06
-2.33594e-05
-5.29962e-05
8.21915e-06
-7.67079e-05
-5.47337e-05
1.69977e-05
-2.35285e-05
6.93039e-05
-5.89244e-05
-1.58963e-05
-3.79723e-06
-4.3655e-05
1.75054e-06
6.90843e-06
-1.56339e-05
-1.26815e-05
-6.31297e-06
-2.87476e-05
6.3584e-05
-1.27361e-05
2.98871e-05
-1.94596e-05
0.00010666
-6.87314e-05
2.64274e-06
7.97829e-05
-7.28981e-05
-2.11623e-05
-1.82807e-06
-5.65441e-06
-3.07191e-05
-1.66008e-07
6.13105e-05
-4.53605e-05
-3.93693e-06
2.7423e-05
5.10007e-05
6.30179e-06
2.15231e-05
-5.9315e-05
-4.52379e-05
-4.56916e-05
-4.39745e-05
-2.38915e-05
-5.03431e-05
-2.24267e-05
-6.28908e-05
1.11938e-05
0.000117078
1.08846e-05
1.60374e-06
7.11577e-06
-1.24834e-05
-9.79609e-05
1.17277e-05
-2.43351e-05
-6.52875e-05
-4.57343e-05
9.77495e-05
-2.84506e-05
2.46852e-05
2.89716e-05
-3.39516e-05
9.1926e-05
-5.06382e-05
-3.13998e-05
4.17465e-07
2.26254e-05
5.23945e-05
-4.63509e-05
3.01946e-06
-7.25876e-05
3.62425e-05
4.53803e-05
5.10279e-05
4.9612e-05
1.14621e-05
6.3146e-06
1.38575e-05
1.41468e-06
1.35629e-05
-5.94296e-05
-5.26092e-05
-3.14454e-05
3.68985e-05
-1.13016e-06
4.39375e-06
1.65973e-05
1.01102e-05
-4.56735e-05
-5.67073e-05
-2.16056e-05
3.7537e-06
3.02105e-05
2.47174e-05
-3.70555e-05
-4.6816e-05
-8.0327e-05
-3.89202e-05
8.46455e-05
4.35194e-05
1.98975e-05
-8.17515e-06
-6.95733e-06
-5.38761e-05
3.58439e-05
-6.18513e-05
7.9043e-05
-1.59476e-05
-3.99174e-05
-6.26172e-05
3.51218e-05
5.15335e-05
1.97079e-06
-3.47081e-06
-9.94909e-06
5.45724e-05
-4.35943e-05
-3.20035e-05
3.58504e-05
-2.33706e-05
-7.19354e-06
3.16268e-05
-2.36785e-05
4.79086e-05
6.116e-05
-1.50189e-05
5.83357e-05
-1.60115e-05
-5.55508e-05
-4.11181e-05
3.92948e-05
8.73667e-05
-9.01811e-06
2.39069e-05
5.31233e-05
-2.11818e-06
3.75917e-05
-6.11143e-05
-5.3782e-05
4.7565e-05
-2.97431e-05
-7.41603e-05
-1.30141e-05
3.82925e-06
-4.95897e-05
-1.00628e-05
1.48059e-05
3.36766e-06
-4.77555e-05
-3.26617e-05
4.78001e-06
4.40956e-05
4.04306e-05
-4.65778e-05
-4.65792e-05
9.95409e-06
6.581e-05
1.77757e-05
-1.76015e-05
-0.000102062
4.74703e-05
-2.01662e-05
-7.77573e-06
-8.79879e-06
4.50336e-05
-5.59189e-06
-5.7005e-05
-1.9311e-05
-3.39667e-05
4.75906e-05
2.16513e-05
-2.22097e-05
-2.47789e-05
-2.54151e-05
-5.8905e-06
-1.15656e-05
-4.13185e-05
-4.02359e-05
1.20606e-06
-4.48263e-05
2.04251e-05
3.38105e-06
-2.82917e-05
3.01644e-05
9.34862e-06
-6.71297e-05
-4.0574e-05
7.09333e-05
-3.39559e-05
-2.67517e-05
2.17736e-05
1.56357e-05
1.44396e-05
-8.90181e-06
-1.19936e-05
1.44324e-05
8.70279e-05
-9.69972e-07
1.2423e-05
-5.59284e-05
-1.92776e-05
3.90811e-05
3.07022e-06
-4.05505e-05
7.56641e-06
6.72849e-05
3.94988e-05
-7.4754e-05
-3.48642e-05
2.46887e-05
-5.16147e-05
3.76732e-06
-4.08546e-05
-1.83191e-05
8.32832e-05
-3.53504e-05
-3.56362e-05
-9.1017e-06
-2.37033e-05
-7.6158e-05
-4.31736e-05
-3.44523e-05
3.0332e-05
-5.93211e-05
-4.43422e-05
-1.38484e-05
2.80142e-05
4.43455e-05
7.11263e-06
-4.19095e-07
-3.3796e-05
5.63174e-05
4.62114e-05
-7.5162e-05
0.000106831
-4.85464e-05
-1.38163e-05
-8.4145e-07