# vtk DataFile Version 1.0
Net Charge Density
ASCII
DATASET STRUCTURED_POINTS
DIMENSIONS 256 128 1
ORIGIN 0 0 0
SPACING 0.15625 0.15625 1
POINT_DATA 32768
SCALARS rhonet float
LOOKUP_TABLE default
-3.89619e-06
-9.51276e-05
0.000144792
9.6322e-05
3.56844e-05
0.000120451
-0.000118445
9.18582e-05
0.000154216
2.28998e-05
-3.75612e-05
0.000108726
0.00010382
7.94452e-05
0.000109346
4.99608e-05
8.77429e-05
0.000140236
4.05882e-05
-6.79104e-05
-6.40657e-06
0.00014186
0.000144767
4.77823e-05
3.72678e-05
2.0743e-05
7.74221e-05
9.05893e-05
-1.3522e-05
-7.27426e-05
5.23026e-05
3.97237e-05
4.3669e-05
6.9008e-05
1.24414e-05
0.000171713
1.68072e-05
7.28725e-05
7.73577e-05
-5.53112e-06
2.29322e-05
6.83195e-06
0.000136404
9.39814e-05
2.0939e-05
1.86826e-05
-3.16134e-05
6.95544e-05
0.000116214
7.88717e-05
-1.20079e-05
2.49787e-05
8.34423e-05
0.000148995
3.55951e-05
1.75037e-05
0.000151012
-5.17471e-05
5.67804e-06
7.16962e-05
5.02795e-05
6.06021e-05
7.16757e-06
8.01798e-05
8.22491e-05
-8.03829e-05
4.41821e-05
0.000136175
4.09955e-05
4.82831e-05
7.92341e-05
3.67111e-05
-2.69159e-05
4.96672e-05
-1.15018e-07
5.11553e-05
4.20862e-05
-3.8308e-05
9.21618e-05
0.000106615
8.71846e-05
2.54081e-05
7.49615e-05
0.000101106
4.54686e-05
-4.48013e-06
-1.6691e-05
6.70489e-05
0.000119669
-2.34874e-05
9.0003e-05
-1.47952e-05
-3.90525e-05
-6.21483e-06
-8.99178e-05
5.22721e-05
0.000157962
2.40975e-05
9.1688e-05
-2.49445e-05
0.000157723
9.0919e-05
-3.16906e-06
9.4726e-05
3.9038e-05
0.000130971
-2.58093e-07
-6.85491e-05
2.66242e-06
7.39996e-05
0.00013342
5.79278e-05
2.02986e-05
3.3116e-05
8.04211e-05
4.36595e-05
1.22648e-05
7.49691e-05
5.09602e-05
4.32276e-05
-3.98803e-05
-3.45635e-05
4.04443e-05
2.44897e-05
0.00011572
6.60878e-05
1.82547e-05
8.13095e-05
1.99639e-05
-1.881e-05
0.000119796
9.26158e-05
-2.24437e-06
3.77481e-05
2.03244e-05
6.79679e-06
4.46087e-05
-3.19158e-05
4.68963e-05
-1.15028e-05
-4.98407e-05
2.32954e-05
2.0962e-05
0.000160761
9.88228e-05
2.06416e-06
0.000137836
1.15244e-05
-3.1124e-05
0.000132418
1.78269e-05
2.91315e-05
0.000108427
-8.34547e-06
3.45045e-05
4.32312e-05
5.74649e-06
3.42712e-05
-5.27606e-06
1.75425e-05
7.67775e-05
2.50088e-05
0.00011271
-2.20692e-05
3.25852e-05
2.55229e-05
5.8462e-05
-6.12728e-05
0.000105448
0.000137295
2.50293e-05
4.32234e-05
7.45821e-05
0.000111578
-2.02681e-05
-8.13382e-06
8.72926e-05
-8.23223e-05
1.15582e-05
3.31806e-05
8.87692e-05
-7.06001e-05
-3.18111e-05
5.65359e-06
1.0499e-05
7.98535e-05
4.142e-05
7.20925e-05
0.000102553
7.46856e-05
2.48845e-05
0.000198125
8.16127e-05
-6.56992e-05
6.242e-05
0.000201229
4.75224e-05
8.32756e-05
7.86672e-05
-1.63087e-05
5.95989e-05
0.000149169
4.39017e-05
3.83357e-05
-1.00755e-05
6.97707e-05
-5.98878e-05
5.34236e-05
6.86802e-05
8.57905e-05
6.81024e-05
0.00013744
0.000106096
-2.40526e-05
0.000111081
-0.000131281
0.000102691
9.90944e-05
-5.28728e-05
-3.79212e-05
8.69744e-05
0.000114878
0.000176992
3.40519e-05
7.95296e-05
5.67447e-05
-3.69136e-05
-1.514e-05
8.69035e-05
6.86073e-05
6.22845e-06
4.16541e-05
2.36375e-05
2.60695e-05
0.000121307
-3.55702e-05
-2.05765e-05
2.75e-05
5.94512e-05
8.97981e-06
1.84993e-05
8.66938e-05
-5.82667e-05
-3.07336e-07
2.65897e-05
-1.44094e-05
-2.21961e-05
-3.95464e-05
0.000128656
-4.29642e-06
2.10482e-05
-3.85132e-05
0.000102294
2.14379e-05
2.40527e-05
4.18613e-05
-0.0001049
2.47043e-05
-6.30282e-05
-2.51193e-05
-2.38873e-05
5.12257e-05
-2.60446e-05
-7.5764e-05
4.98935e-05
-6.60461e-05
-4.28996e-05
2.33415e-05
-5.99085e-05
-8.02726e-05
3.00282e-06
-4.24262e-05
4.66243e-06
1.08911e-05
-2.15753e-05
-4.0608e-06
-5.82074e-05
-6.7494e-05
-0.000106139
-1.79199e-05
-2.00458e-05
-5.72716e-05
-2.52767e-05
7.73033e-06
-3.07411e-05
-8.5387e-05
-3.53894e-05
-8.36188e-06
2.74419e-05
-7.95682e-05
-6.67482e-05
2.31332e-05
-0.000103178
-3.37884e-05
1.98339e-05
-8.20329e-05
-5.15869e-05
-4.38412e-05
8.67248e-06
3.55998e-05
-2.47124e-05
4.87454e-06
-0.000112384
-3.15176e-05
3.88796e-05
-3.3941e-05
-6.56133e-05
-4.11929e-05
-3.1738e-05
2.98236e-05
-2.85322e-05
-3.54567e-05
-2.34863e-05
-0.00011611
1.48106e-05
-3.37932e-05
4.56301e-05
-5.12688e-05
-5.7285e-05
-3.73452e-05
-3.01477e-05
-6.05665e-05
-1.00288e-05
-7.96346e-05
-0.000109192
1.21042e-05
-4.39815e-05
9.01776e-06
-1.84359e-05
1.72418e-05
-5.13532e-05
-1.04342e-05
4.76094e-05
-2.5494e-05
5.74085e-05
2.15834e-07
-3.24124e-05
-5.04449e-05
-8.22558e-05
2.84832e-05
2.44657e-05
-6.16946e-05
-0.000158637
-4.16982e-05
-6.58911e-08
-1.69137e-05
8.77387e-06
5.33125e-05
3.15625e-06
-1.07939e-05
2.47143e-05
-5.96535e-06
3.43231e-05
-2.73118e-05
-6.84685e-06
-1.89501e-06
-4.36434e-05
-0.000106618
-3.96515e-05
-2.96773e-05
-3.55595e-05
1.64217e-05
-5.91241e-05
-4.27188e-05
-1.06706e-06
-6.00005e-06
5.4352e-05
-3.54236e-05
-7.13791e-05
-7.13177e-05
4.017e-05
1.15471e-05
-5.23519e-05
-1.11551e-05
9.64548e-06
3.18986e-05
-8.57748e-05
1.39616e-05
-6.13795e-05
-7.74115e-06
-3.48627e-05
-1.671e-05
-4.55658e-05
-6.96026e-05
1.70248e-05
-4.88104e-05
-2.0797e-05
1.59816e-05
-1.05535e-05
-2.35451e-05
-1.24405e-05
-3.31043e-05
-4.60127e-05
-1.3358e-05
-4.22454e-05
-8.323e-06
-5.94475e-05
-7.8258e-05
8.69704e-06
-2.01981e-06
-8.38253e-05
1.05489e-05
-3.22354e-05
-4.36765e-05
-0.00011768
-8.72544e-06
-3.9958e-05
-3.83075e-05
-7.16746e-05
9.37085e-06
3.00057e-05
-1.70409e-05
-2.39994e-05
-1.85589e-06
-5.11224e-05
-2.0256e-05
-8.13482e-05
-6.40942e-05
3.62422e-05
-8.02709e-05
-7.56339e-06
2.37459e-05
2.21166e-05
-5.27813e-05
-2.42493e-06
3.60707e-05
-9.46564e-05
1.02372e-05
-2.21478e-05
3.97031e-05
-4.13508e-05
-2.55479e-05
-5.70074e-06
3.04062e-05
-6.90703e-05
-4.77678e-05
3.67507e-05
-4.79701e-06
2.05939e-06
-4.86564e-05
-0.000107547
-6.60246e-05
-2.66007e-05
-2.24793e-05
-9.32964e-06
-1.88573e-05
-0.00010145
6.32275e-06
3.69586e-05
4.60993e-06
-1.08494e-05
-2.36547e-05
-8.50843e-05
-3.90908e-05
4.81101e-05
-6.9777e-06
-7.51888e-05
-6.46281e-05
-4.37901e-05
3.07562e-05
-5.53512e-05
1.83121e-06
-5.12167e-05
9.71672e-05
1.17982e-05
-4.14068e-05
-5.22409e-05
-4.83993e-05
-4.73999e-05
3.21252e-05
-3.50829e-05
-7.29868e-05
1.6978e-06
-2.53875e-05
-1.98884e-05
4.50562e-06
-1.73197e-05
7.05676e-05
5.70893e-05
-6.70664e-05
-3.48983e-05
-2.73379e-05
-7.02046e-05
-2.06062e-05
2.42679e-05
8.5886e-05
-8.70342e-05
6.93474e-06
-4.34539e-05
-3.62699e-05
6.90327e-05
3.75874e-05
-6.27583e-05
-4.99084e-06
2.55416e-05
-5.11212e-05
2.26244e-05
-1.34828e-05
-4.80206e-05
-1.9824e-05
3.0552e-06
3.73245e-05
3.42678e-05
-1.23484e-05
-2.31675e-05
-0.000132199
-1.6659e-07
-7.60658e-06
5.12581e-05
-7.35291e-06
-7.36322e-05
5.0168e-06
-3.30424e-05
-1.99105e-06
5.00258e-05
-7.79773e-06
-2.33896e-05
-8.48016e-06
1.05449e-06
-1.92301e-05
7.13234e-05
-5.15236e-05
7.82229e-06
3.11632e-05
6.5343e-05
-4.67901e-05
-2.90645e-05
-1.14907e-05
-2.49569e-05
-9.34282e-05
-2.0482e-05
3.51586e-05
4.88629e-05
3.64081e-05
-1.64531e-05
3.77696e-05
6.1458e-05
-4.75241e-05
4.48449e-05
4.40087e-05
9.82254e-06
-5.10865e-05
1.23072e-05
2.3444e-05
7.04308e-05
4.96689e-05
-3.57148e-05
2.25283e-05
5.2735e-06
-2.51166e-05
4.80087e-05
3.40397e-05
2.11631e-05
-2.89194e-05
-7.34258e-05
2.16749e-05
3.48731e-05
1.42143e-06
-4.63356e-05
1.81736e-06
-1.65708e-05
5.22441e-05
1.92714e-05
-4.25102e-05
-9.05945e-05
6.88457e-06
2.94284e-05
9.43267e-06
3.90757e-05
-4.01768e-05
2.79774e-05
-3.30702e-05
9.02754e-05
1.87058e-05
2.1936e-05
-2.38949e-05
3.89216e-05
7.9507e-05
-1.42958e-06
-1.07868e-05
-4.31229e-05
-5.63422e-05
3.65557e-05
5.69166e-06
-2.97659e-05
3.18504e-05
-3.75104e-05
-1.97687e-05
6.36961e-05
5.06417e-05
-4.80587e-05
-4.1877e-05
-9.31253e-06
-2.63557e-05
-1.33661e-05
5.09445e-05
7.41071e-05
-1.38808e-05
-5.52129e-05
-6.02388e-05
2.25467e-05
4.01647e-05
-3.56471e-05
4.60859e-05
6.04029e-05
1.00421e-05
-2.72852e-05
-6.84019e-05
1.03854e-05
-3.90662e-05
-6.67312e-05
1.89326e-05
-3.86647e-05
-7.26087e-05
1.55354e-05
3.4466e-05
-9.18203e-06
-2.52391e-05
3.49992e-05
6.71942e-05
-7.81426e-06
-2.3485e-05
1.9087e-05
-3.45566e-05
-3.24659e-06
3.17626e-05
-4.33619e-05
-4.44569e-05
-1.29163e-05
6.19069e-05
-1.54721e-05
-1.92426e-05
-9.33884e-07
1.07798e-05
-2.67867e-05
6.43285e-05
6.27944e-07
3.16112e-05
-3.4544e-05
-2.02109e-05
3.29812e-05
-8.92964e-06
-5.33774e-05
-6.58383e-05
-1.97738e-05
2.38325e-06
3.65473e-05
8.36782e-06
-1.87813e-06
1.48286e-05
-2.75736e-05
4.24774e-05
2.79527e-05
9.69106e-05
6.65834e-05
1.94263e-05
1.45672e-05
-1.36638e-05
5.90172e-05
5.77697e-05
-3.53304e-05
8.65557e-05
-1.88481e-05
-2.10225e-05
-5.39366e-05
1.12336e-05
-1.22989e-05
7.03167e-05
-1.07866e-05
6.14917e-06
5.77935e-05
3.47518e-05
-3.56392e-05
-5.85662e-06
4.38273e-05
2.99951e-05
1.48884e-05
3.09409e-06
-6.29972e-05
1.44141e-05
-9.34462e-05
4.1088e-05
-3.34157e-05
-7.29722e-05
6.78666e-06
-4.31373e-05
3.2607e-05
-5.40694e-05
-3.51886e-05
-7.38073e-06
-3.4679e-05
7.78155e-06
5.28592e-05
1.66991e-05
-1.61491e-06
7.61895e-05
-2.89618e-06
5.27892e-05
3.30991e-05
2.69054e-05
3.20115e-05
-4.14015e-05
-7.91217e-05
6.70401e-06
-3.7106e-05
3.38652e-07
3.1288e-05
2.55891e-05
4.62427e-05
-7.34488e-06
3.85572e-05
-1.82482e-05
8.60399e-05
-3.51758e-05
-2.4211e-05
-2.44788e-05
3.96881e-05
3.96365e-05
-5.59608e-06
-1.5982e-05
5.26488e-05
-3.12827e-05
-9.51311e-06
1.32092e-05
3.03083e-05
4.01441e-05
-6.21298e-05
6.55779e-06
-4.02802e-05
7.68163e-05
-2.30571e-05
2.42679e-06
-2.36236e-05
-7.65768e-06
1.05519e-06
-7.58455e-05
1.89057e-05
4.24925e-05
2.73308e-06
-4.68809e-05
-0.000111356
2.32974e-05
1.92825e-05
1.66974e-06
4.11411e-05
-1.26259e-05
3.11481e-06
-2.15394e-05
-7.41895e-05
3.57796e-05
1.81666e-05
-4.43211e-05
1.3806e-05
2.49424e-05
-1.40069e-05
-5.45264e-05
-1.59673e-05
4.84827e-05
-4.49934e-06
-0.000139603
5.79735e-05
3.08061e-05
0.000100899
-3.72755e-05
3.82721e-05
1.96723e-05
-2.19452e-05
-3.16999e-05
-3.15026e-05
5.79789e-05
8.84748e-05
-9.06747e-06
-5.99886e-05
9.21823e-06
8.46398e-06
-1.86265e-08
-2.07854e-05
-3.90377e-05
0.000130274
-3.43213e-05
-4.70511e-05
5.37112e-05
-2.79653e-06
2.82272e-06
-3.79188e-05
-6.05409e-05
4.7542e-05
4.84359e-05
-1.75375e-05
3.74633e-05
-5.19094e-05
4.18179e-05
3.39497e-05
-6.99724e-05
2.73651e-05
3.88058e-05
1.67812e-05
-5.26785e-05
6.2869e-05
-2.19626e-05
-4.31011e-05
-7.40355e-06
-2.66791e-05
4.25463e-05
3.6495e-06
2.75727e-05
-4.73879e-05
-6.43707e-06
3.03095e-05
-2.26302e-05
-8.19346e-05
-4.95826e-05
1.36236e-05
3.36372e-05
4.53525e-05
-3.78167e-05
6.72048e-05
-2.02054e-05
-6.23036e-05
4.74697e-05
4.62761e-05
1.2405e-05
3.82881e-05
2.15038e-05
5.87145e-05
-6.49996e-05
-4.25662e-05
-1.34124e-05
4.39062e-05
4.787e-05
-2.23203e-05
-6.05176e-05
1.98302e-06
-2.4375e-06
-3.00116e-05
1.48921e-05
2.92045e-05
7.28869e-05
7.06627e-05
-3.58253e-05
-0.000140627
2.58458e-05
1.20397e-06
-2.88254e-05
-4.69696e-05
5.72429e-05
3.12589e-05
1.75565e-05
-0.000107817
-1.58472e-05
1.13323e-05
3.99521e-05
3.28138e-05
-4.30105e-05
3.20362e-05
3.74883e-05
-3.91937e-05
2.83315e-05
3.71942e-05
-1.37147e-05
3.56361e-05
-5.44158e-05
8.30445e-05
3.0324e-05
-1.94272e-05
-2.67292e-05
6.84276e-05
4.12186e-05
-2.91594e-05
3.35344e-05
3.92138e-05
3.68366e-05
-3.48371e-05
-2.81514e-05
1.41672e-05
3.52948e-05
-7.15664e-05
-2.16158e-05
4.60048e-05
3.64995e-05
2.31862e-05
-3.12361e-05
-7.13487e-05
2.25479e-05
-3.52724e-05
7.69856e-05
-4.1643e-05
-1.37861e-05
7.45144e-05
-5.40665e-05
4.00434e-06
-1.77848e-05
-5.58048e-05
2.01226e-05
5.96046e-06
5.05816e-05
6.31163e-05
-6.58259e-05
8.14188e-05
-4.3224e-05
-2.44335e-05
2.67201e-05
4.3941e-06
9.56818e-06
7.65524e-06
4.39165e-06
-4.22162e-05
2.17028e-05
1.01278e-05
-1.56357e-05
-7.88143e-05
-2.79713e-05
-7.33149e-06
2.62833e-05
6.22869e-06
2.384e-05
-8.04092e-06
5.26163e-05
3.0096e-05
-3.07953e-05
-8.68588e-05
1.14747e-05
3.87337e-05
1.11607e-05
-2.85617e-05
-9.12487e-06
-2.48139e-06
2.21186e-05
-3.23006e-06
2.53443e-05
2.25466e-05
3.20966e-05
-2.08742e-05
-3.06254e-06
6.05569e-06
-3.41423e-06
3.49663e-05
-2.44873e-05
5.3474e-05
1.96627e-05
1.27885e-05
-1.15688e-05
2.92524e-05
2.87092e-06
3.39588e-05
-1.87168e-05
-2.88617e-06
-6.90415e-05
2.46683e-05
-5.03904e-06
-1.26837e-05
2.05979e-05
-2.63398e-05
-2.66195e-06
-3.0247e-05
-7.38937e-05
-1.16542e-05
0.000124286
-9.67178e-05
2.30562e-05
4.08882e-05
1.12082e-05
1.89694e-05
2.29747e-05
-6.50401e-05
-1.85566e-05
-3.58946e-05
9.88762e-06
-2.25087e-05
-0.000114619
5.06442e-05
-0.000120174
-5.2155e-05
0.000129995
-2.85546e-05
-3.29313e-05
1.3981e-05
-3.08803e-06
-4.58397e-06
-6.87175e-05
5.01284e-07
2.54062e-05
-3.06808e-05
-4.83699e-05
-2.09836e-05
3.77458e-05
3.99076e-05
1.09905e-05
-3.37757e-05
2.43066e-05
4.91926e-05
4.58616e-05
-7.1392e-05
-6.57425e-05
-4.48679e-05
5.14658e-05
2.45089e-06
-1.54646e-06
-6.96708e-05
3.41912e-07
-1.04238e-05
6.89412e-06
-2.2904e-05
-2.35485e-06
-3.06221e-05
3.27411e-05
-3.22633e-06
-1.03367e-05
-2.52567e-05
2.84618e-05
9.52234e-05
-3.02619e-05
3.21704e-05
4.43809e-05
-4.54085e-05
-0.000101101
-3.30776e-05
0.00011101
6.2544e-05
-5.28274e-05
-0.000107186
-1.1813e-05
6.8567e-05
3.46114e-05
-5.40466e-05
-5.21376e-05
4.75175e-05
-4.06374e-05
-0.000119435
6.12034e-05
-1.81566e-05
-3.11728e-05
0.000105493
-4.54732e-05
-9.29431e-05
-5.38458e-05
9.50531e-06
-5.54989e-05
1.67232e-05
4.28187e-06
-7.23698e-05
6.52438e-06
4.59249e-05
6.7777e-06
-2.0666e-06
5.32218e-05
2.83382e-05
-3.75982e-05
-4.85511e-05
0.000104193
-1.62809e-05
-5.7274e-06
-2.96995e-05
-2.67231e-06
-4.58122e-05
8.22742e-06
-1.31112e-05
-4.38882e-05
-3.36709e-05
-5.49546e-05
4.80604e-05
-3.43904e-05
5.50932e-05
-3.26772e-05
-2.49939e-05
-9.60962e-06
3.26964e-05
-4.3438e-05
8.21743e-05
3.9906e-06
1.01072e-05
-2.64168e-05
-1.68488e-06
5.18318e-05
-5.05241e-05
7.6534e-05
-2.69969e-05
-2.84481e-05
5.25336e-06
1.91288e-05
5.75269e-05
-1.5507e-05
1.41477e-05
1.54794e-05
9.67546e-05
-2.60589e-05
2.79746e-06
-6.86486e-05
-4.36441e-06
5.35557e-06
-6.22473e-07
-1.12272e-05
2.76119e-05
-7.06455e-05
2.38863e-05
3.64641e-05
-5.86128e-06
-1.47324e-05
5.8536e-05
-1.46416e-06
5.05359e-07
-8.36398e-06
-6.6882e-05
-7.45826e-06
-5.66773e-05
5.4914e-05
-1.55675e-05
-6.51169e-05
1.93967e-05
-2.5009e-05
1.49552e-05
4.44499e-05
-8.87783e-06
-5.64917e-05
-7.07047e-05
-8.34139e-06
-2.96296e-05
-2.15264e-06
-1.83217e-05
-1.89384e-06
-0.000102778
8.74815e-06
3.24821e-05
3.07963e-05
-0.000103662
-3.61556e-05
2.02421e-05
8.39115e-05
4.753e-06
-1.31456e-05
3.19695e-05
7.15139e-07
-3.7137e-05
-7.51377e-05
-6.92122e-05
-2.21247e-06
-7.09705e-05
1.36718e-06
-4.37524e-05
5.21011e-05
-3.20333e-05
-2.11227e-05
9.38203e-06
-1.06066e-06
4.85149e-06
-2.59294e-05
5.72975e-05
-2.03841e-05
4.02208e-05
1.71225e-05
-4.36114e-05
4.79084e-06
-4.099e-05
-3.4913e-07
2.30945e-05
-3.31621e-05
1.34488e-05
1.23589e-05
-2.61038e-05
-4.63815e-05
1.17682e-05
-4.40205e-05
0.000100773
4.16174e-05
5.95757e-05
5.72682e-06
3.63542e-06
3.7217e-05
-2.83868e-05
-2.65324e-05
-3.87033e-05
-3.32439e-05
-2.94507e-06
-4.8338e-06
-7.42387e-05
-9.21184e-05
-4.12926e-05
9.36041e-05
1.79687e-05
2.4614e-05
5.07899e-05
-3.90918e-05
-4.86943e-05
-6.07772e-05
2.91871e-05
-7.01525e-05
2.39769e-05
5.71006e-05
1.43817e-05
-8.5445e-05
6.48927e-05
5.64114e-06
1.15009e-05
-0.000120717
5.33739e-05
7.36077e-05
5.39119e-06
1.38734e-05
1.18408e-05
-9.6506e-06
3.66956e-05
-3.03437e-05
4.7182e-05
6.1725e-05
-4.68106e-06
-4.0433e-05
-2.98398e-05
4.83403e-06
-1.19233e-06
4.36945e-05
-1.84961e-06
-1.13775e-05
-1.70611e-05
7.82481e-05
-4.58339e-06
1.79142e-05
-3.62857e-05
-7.78637e-05
7.38349e-05
-9.19311e-05
-5.20842e-06
2.09288e-05
2.30584e-06
7.05894e-05
3.83818e-05
7.42078e-06
5.50143e-05
-1.01443e-05
4.60939e-05
-1.68378e-05
-5.88744e-05
-4.91897e-05
5.14218e-05
5.45884e-05
-1.98534e-05
5.81013e-05
3.02006e-05
1.38804e-05
2.24966e-05
6.25565e-05
6.9018e-06
-8.80084e-05
-1.34254e-05
-5.00772e-06
4.87005e-05
5.99247e-05
6.30916e-05
1.4262e-06
2.14429e-05
-2.66382e-05
-9.90415e-06
-6.22047e-05
-1.60283e-05
3.2594e-05
-3.85356e-05
-1.90416e-05
5.31544e-05
-2.28162e-05
1.54099e-05
-4.23554e-05
-5.64614e-07
-5.11479e-05
-1.07911e-05
-0.000114607
2.06352e-05
1.91716e-05
7.28538e-05
2.73266e-05
-4.94908e-05
5.05772e-05
5.27871e-05
6.41993e-05
-7.99028e-06
4.43971e-05
-4.86514e-05
-2.58865e-05
-3.12885e-05
9.76645e-05
-4.46031e-05
-4.8709e-05
2.70446e-05
-5.04584e-05
1.36552e-05
-9.01836e-05
-0.000131356
6.04801e-05
5.67486e-05
-1.70097e-05
2.47727e-05
-9.10857e-06
5.16704e-05
-8.06587e-05
3.82906e-05
3.78339e-05
1.59072e-05
-7.97538e-06
-6.65546e-06
3.57416e-05
3.1377e-05
-9.32615e-05
-4.72952e-05
-9.38082e-05
-4.97693e-05
6.84747e-05
-3.54392e-05
9.14512e-06
-3.66226e-05
3.87211e-05
1.69345e-05
4.47609e-05
-5.40492e-05
2.94935e-05
6.61319e-05
1.22411e-05
-6.64294e-05
1.13365e-06
1.48164e-05
-1.3693e-05
6.08951e-05
-9.08971e-07
7.89305e-05
9.09704e-06
5.2616e-05
-9.66364e-05
3.41138e-05
6.60564e-06
-1.27825e-05
-4.43457e-05
-2.06707e-05
3.15066e-06
-9.30624e-07
-6.30615e-05
-0.000100799
-4.1587e-05
-9.15084e-05
-4.81866e-05
5.62916e-05
-1.52459e-05
-5.22907e-05
-2.41196e-05
-1.08294e-05
-4.57693e-05
-4.23092e-05
1.19056e-05
2.83605e-05
-1.41367e-05
-5.28246e-05
-6.13478e-05
1.77319e-05
1.07327e-05
-2.08276e-05
5.96305e-05
1.7907e-06
2.51202e-05
-2.36351e-05
5.88668e-05
3.18963e-05
4.76106e-05
-7.31896e-05
7.22467e-05
-0.000100923
-6.24068e-06
6.49313e-05
8.48947e-06
3.23068e-05
-3.30678e-06
-4.32202e-05
2.37813e-06
1.99968e-05
-1.27285e-05
9.59355e-06
3.61402e-05
2.75427e-05
6.92143e-05
-2.72389e-06
-6.3224e-05
-6.14522e-06
-7.61054e-06
-1.02115e-05
4.45035e-05
5.20085e-06
2.67308e-05
-6.62985e-06
-4.79817e-06
-2.94806e-05
1.43554e-05
5.68922e-06
6.79194e-05
9.01194e-06
3.43912e-05
1.84246e-05
1.29039e-05
-4.46519e-05
3.45935e-05
3.36551e-05
1.93832e-06
-1.88091e-05
4.46877e-05
-5.23892e-05
6.75367e-05
7.74652e-05
6.37199e-06
8.13843e-05
-3.18107e-05
2.20668e-05
-1.7356e-05
-2.87805e-05
-6.86576e-05
1.19237e-05
2.47917e-05
1.23705e-05
-3.48674e-05
2.16785e-05
-2.20751e-05
-3.52541e-06
1.23344e-05
1.70956e-06
2.97124e-05
-6.88565e-05
-1.3374e-05
9.18964e-05
-3.43522e-05
1.47279e-05
-1.23635e-05
4.94567e-05
2.42066e-05
-4.44687e-05
5.05934e-05
0.000106778
9.66932e-05
6.52507e-05
8.89879e-07
-7.20692e-06
-1.14565e-05
6.66905e-05
-5.44777e-06
4.01796e-05
-2.33978e-05
4.17557e-05
-3.41279e-05
-2.13976e-05
6.28037e-06
-2.62645e-05
3.5821e-05
-8.9314e-05
4.69467e-05
-3.57553e-05
3.30249e-05
2.34644e-05
-9.97121e-05
2.2134e-05
3.5702e-05
-1.87462e-05
2.13264e-05
-6.78233e-05
2.71619e-05
-5.16974e-05
5.68142e-05
4.88441e-05
-1.74805e-05
3.8041e-05
4.54171e-05
1.17882e-05
-8.37957e-06
2.07489e-05
-2.05643e-05
5.28253e-05
-7.57059e-05
-4.26273e-05
-7.67282e-06
2.04986e-05
-1.54353e-05
-3.12331e-05
1.17403e-05
6.21651e-05
4.88078e-05
4.33589e-06
-0.000127571
-5.02239e-05
-6.86672e-05
-6.60997e-05
3.09137e-05
7.61508e-05
-7.01353e-05
-7.03032e-06
9.28494e-06
4.82406e-05
3.83984e-06
8.47317e-06
-6.75763e-05
-1.85831e-05
1.21737e-05
-8.66805e-06
-3.19527e-05
-1.4283e-05
3.18373e-06
7.33009e-06
1.82411e-05
2.56514e-05
-6.78835e-05
-4.71435e-06
3.49289e-05
-5.05331e-05
1.07933e-05
-1.5015e-05
-1.63049e-05
-2.95395e-05
9.53887e-05
2.63907e-05
-1.76687e-05
-2.15024e-05
-1.27992e-05
8.03266e-06
-1.35805e-05
2.63908e-05
-7.18574e-06
-1.90844e-05
2.17278e-05
5.39329e-05
-9.03434e-05
5.79042e-05
-1.44778e-05
-1.46051e-05
-3.8323e-05
-4.54381e-05
2.61622e-05
5.74815e-05
2.07161e-05
1.80585e-05
2.61941e-05
-7.22182e-06
-2.65969e-05
2.38706e-05
-3.81797e-05
-3.29989e-05
2.86612e-05
4.19549e-06
5.34139e-05
-1.29018e-05
-4.54625e-06
9.10497e-05
1.63323e-05
1.69142e-05
-4.63271e-05
3.55748e-05
-3.91718e-05
2.29463e-05
1.72224e-05
3.08629e-06
6.80587e-05
6.72807e-05
-1.70231e-05
-7.54697e-06
4.55868e-05
-1.23872e-05
-6.61239e-06
0.000122597
3.26278e-05
1.8212e-05
2.49492e-05
-5.22537e-05
-2.22394e-05
-5.70164e-05
1.30443e-06
7.69028e-06
2.41783e-05
1.07717e-05
-5.20687e-05
1.76701e-05
6.44933e-05
-6.11891e-05
5.44076e-05
-4.49324e-05
-7.05203e-05
6.23066e-06
3.27918e-05
4.70873e-05
1.32713e-06
1.32953e-05
-7.78602e-05
-2.81828e-05
-6.8926e-06
0.000112601
3.68478e-05
-3.34257e-05
4.85631e-05
3.18344e-05
1.14888e-05
6.94899e-05
0.000133271
-7.3859e-05
-4.20363e-05
-1.68972e-05
2.04118e-05
8.13243e-06
-1.95537e-05
3.47554e-05
5.05915e-05
-6.30394e-05
-4.2269e-05
1.79631e-05
5.70349e-05
-6.66478e-07
2.83979e-05
-3.47798e-05
-8.23161e-05
-3.16929e-05
-5.51025e-05
-1.69484e-05
6.43987e-05
-5.57769e-05
5.2521e-05
-0.00011234
-7.10648e-05
-1.52235e-05
-1.60272e-05
-3.59304e-05
5.28318e-05
4.40278e-05
-4.75498e-06
-6.05785e-05
-2.03252e-05
1.72125e-05
2.40912e-05
-2.14998e-05
-3.80275e-05
1.84209e-05
-5.2297e-05
-1.48043e-05
-9.04263e-05
-1.86143e-05
-1.40986e-05
0.000121308
-2.54698e-05
5.25211e-05
3.79479e-05
3.11937e-05
-3.85306e-05
-5.10237e-06
-4.49663e-05
2.6295e-05
1.12429e-05
-1.86055e-05
1.74431e-05
-3.76215e-05
8.71113e-06
-3.17956e-05
7.14649e-05
-7.47015e-05
0.000101809
5.19644e-05
3.18052e-05
1.9416e-05
4.6366e-05
-3.00468e-06
1.62401e-05
7.99989e-05
3.67605e-06
-1.37992e-05
-5.21087e-05
-5.62185e-05
2.68223e-05
-3.78026e-05
-4.78231e-05
2.88638e-05
-2.68993e-05
-1.16545e-05
-5.02812e-05
3.10766e-05
-2.00587e-05
3.81088e-05
-8.7174e-05
-4.69049e-05
1.6719e-05
4.92433e-05
9.12789e-06
1.42609e-06
-6.69425e-05
-7.27302e-05
-1.43617e-05
-9.74478e-06
-1.56972e-05
2.67379e-05
-9.21222e-05
-5.88645e-05
-1.25879e-05
5.10602e-05
-8.9749e-05
7.86015e-05
1.30902e-05
1.51681e-05
-0.000114672
-4.19708e-05
1.0648e-05
8.84156e-05
-6.75325e-06
-6.93044e-06
1.0808e-05
-9.15199e-05
-1.49587e-05
1.07788e-05
5.18088e-05
-3.28288e-05
4.25933e-05
9.43115e-06
7.85454e-07
4.03607e-05
-3.83507e-06
2.66724e-05
-2.21871e-05
6.11413e-07
2.16463e-06
1.8309e-05
-2.01636e-05
-7.5235e-05
-8.20156e-05
-4.08834e-05
3.06886e-05
3.11449e-05
-1.76032e-05
-1.14895e-05
3.87504e-05
9.27458e-06
1.17533e-05
-4.44881e-05
-5.27478e-05
-4.26526e-05
9.60721e-05
-3.91062e-05
-6.17565e-05
-4.5125e-05
4.72029e-06
-4.1578e-05
-1.74739e-06
2.57664e-05
4.81141e-05
-3.50765e-05
2.89149e-05
3.42635e-05
2.19489e-05
-2.03151e-05
-2.84294e-05
2.95847e-05
6.23262e-05
1.81491e-05
-1.77098e-05
-4.229e-05
-3.51807e-06
6.32221e-05
3.54694e-06
7.63219e-06
-5.29399e-06
1.01698e-05
2.74982e-05
2.91364e-05
-2.60756e-05
-5.97398e-05
8.67876e-05
3.2931e-05
-1.45728e-05
-1.42372e-05
5.72903e-05
3.84275e-06
9.81884e-05
0.000121367
-2.85935e-05
2.49981e-05
7.87224e-06
-1.86714e-05
-1.70153e-05
-7.3237e-05
0.00011208
-1.25975e-05
-6.01779e-05
7.86327e-06
3.08845e-05
9.78366e-06
7.84034e-06
1.71361e-05
4.85452e-08
-2.67227e-05
-2.56809e-05
-4.13369e-05
-4.55828e-05
-1.76233e-05
-7.76572e-06
-4.82685e-05
7.13974e-05
1.64242e-05
3.0174e-05
-3.19595e-05
1.39845e-05
-1.39403e-05
-1.55892e-05
4.47663e-06
-1.65856e-05
8.27654e-05
5.56021e-05
5.67257e-06
3.54118e-05
2.86195e-06
-1.63052e-05
2.07496e-05
9.63174e-06
-1.45017e-05
-4.88881e-05
-4.07486e-05
-9.69216e-06
4.12577e-05
-2.15804e-05
-3.41524e-05
5.64967e-05
-1.3731e-05
-5.04204e-05
3.84738e-05
-2.33628e-05
-1.19593e-06
-5.94471e-05
5.95185e-06
6.40077e-05
-7.39726e-05
-2.23713e-05
-4.28874e-06
-7.43159e-05
-1.58097e-05
5.6006e-05
-2.41019e-05
5.20147e-05
4.58726e-05
-3.16426e-05
0.000122278
2.89966e-05
1.20704e-05
-2.74088e-05
-3.44678e-05
-3.20199e-05
5.98457e-05
4.27902e-05
-2.54267e-05
-1.62863e-05
4.25266e-05
4.5598e-05
-7.08055e-05
-4.53842e-05
-1.75915e-05
6.00134e-05
3.70812e-05
4.36977e-05
-7.64511e-06
2.17552e-05
1.48433e-05
1.47811e-05
3.49518e-05
1.44988e-05
-7.17349e-05
5.90798e-05
3.93526e-05
-1.62121e-05
4.74531e-05
-1.8456e-05
-3.84232e-05
8.46087e-05
5.78982e-05
5.29932e-05
-2.82943e-05
-1.4026e-05
-3.38163e-06
6.5687e-05
1.70164e-05
1.81666e-05
-1.45186e-05
-3.22153e-05
8.30146e-06
5.70647e-05
3.72088e-05
6.89622e-05
3.92864e-05
3.07857e-05
-1.59349e-05
4.17504e-05
8.47341e-06
-3.21826e-05
-1.07553e-05
-1.45924e-05
5.39317e-05
1.2189e-05
2.11238e-05
-2.64754e-05
1.12988e-05
-2.39077e-05
-1.44508e-05
1.09985e-05
-7.73452e-06
4.69061e-06
1.68592e-05
6.67062e-05
1.57991e-05
-0.000107579
-8.24989e-05
6.52322e-06
-5.85073e-05
5.17321e-05
1.84864e-05
1.66778e-05
-7.07679e-05
5.68538e-06
-1.86225e-05
-4.33428e-05
5.8328e-05
-4.15355e-05
-7.76739e-05
-1.33208e-05
-3.74747e-05
-1.10001e-06
5.06305e-05
3.43452e-05
5.21397e-05
2.9532e-05
4.71445e-05
-2.02379e-05
0.000134812
5.51657e-05
-3.82708e-05
-1.12214e-05
0.000111732
1.12818e-06
-1.38339e-05
-2.0733e-05
-1.05337e-05
5.75103e-06
2.51085e-05
-6.47175e-05
1.22259e-06
0.00011825
2.02319e-05
-6.9679e-05
-8.34581e-05
9.0689e-05
4.29548e-05
-6.09936e-05
-2.33646e-06
4.52413e-06
-2.48614e-05
-7.49838e-05
-6.30098e-06
3.39788e-05
6.28864e-05
-2.65939e-06
-2.97545e-05
-6.67727e-05
-1.0831e-05
7.42334e-06
3.03184e-05
-1.26916e-05
1.26482e-05
-3.24743e-05
-1.54031e-05
4.65958e-05
-6.06291e-07
-7.33233e-05
-3.61168e-05
3.19345e-05
5.07119e-05
5.52044e-05
-3.86605e-05
-2.71013e-05
-1.73214e-06
4.00438e-05
-1.28829e-05
1.1524e-05
2.75393e-05
1.51003e-05
2.02365e-05
3.27821e-05
-0.000103583
-2.37206e-05
5.62991e-05
-3.56052e-05
-8.56417e-05
0.000101618
-2.90701e-05
2.15793e-05
-5.19503e-05
6.29365e-06
-5.9559e-05
3.80189e-06
-4.01159e-05
2.21786e-05
-9.73768e-06
6.35827e-05
-2.7613e-05
-2.54386e-05
9.06725e-05
-5.55889e-05
-3.51444e-05
1.47808e-05
-2.3094e-05
3.46852e-05
-4.1014e-05
-1.0932e-05
2.9841e-05
3.45646e-05
-4.78459e-05
-5.78742e-05
-3.72988e-05
3.58617e-05
-1.02359e-05
-1.76759e-05
3.83472e-05
4.55021e-06
-3.07257e-05
-6.31753e-05
6.19108e-06
-5.68882e-05
0.000120349
-0.000117729
-6.80869e-05
1.0187e-05
-1.0216e-05
2.82163e-05
-1.96026e-05
-6.25616e-06
3.50755e-05
9.93162e-06
-5.96486e-05
5.4057e-05
-2.97576e-05
-7.25733e-07
-9.39099e-06
-2.64798e-05
5.89006e-05
9.35844e-05
7.95014e-05
-1.68919e-05
-6.82933e-05
-7.77042e-05
4.75629e-05
-1.31794e-06
1.17447e-05
5.16311e-05
-6.31504e-05
2.21429e-05
3.45727e-05
-3.89623e-05
4.92728e-05
9.85339e-06
-2.7369e-05
-7.18012e-05
-2.20723e-06
9.41276e-06
5.68598e-05
-2.01399e-05
-8.62207e-06
7.08993e-06
9.574e-07
-2.91978e-05
-3.67718e-05
9.86736e-07
-7.08376e-06
-7.77072e-05
4.07125e-05
2.28041e-05
-2.33531e-05
-2.82731e-05
6.35628e-06
-3.10615e-05
-2.37785e-05
5.87656e-05
3.77757e-05
-8.88543e-05
1.8874e-05
2.82149e-05
2.42068e-05
-1.97263e-05
3.13714e-05
2.67716e-05
-2.7891e-05
-1.14412e-05
4.39796e-05
-1.84721e-05
6.28922e-06
-9.41602e-06
3.6708e-05
-1.65389e-05
-2.21904e-05
-3.26345e-05
2.11538e-05
-9.05287e-05
-2.25266e-05
7.17782e-06
-1.67803e-05
-5.12952e-05
-4.15267e-05
3.0258e-05
1.87585e-05
1.34517e-05
6.79975e-05
0.000103677
-2.68694e-05
-5.62216e-05
-7.36886e-06
-8.72929e-06
-8.22148e-06
-0.000119191
3.07655e-05
9.97079e-05
7.93552e-05
2.35239e-05
2.89525e-06
3.23564e-05
6.61914e-06
-1.27405e-05
-1.12371e-05
3.50201e-06
6.08944e-05
-6.73498e-06
5.99332e-05
-9.10857e-06
-4.93438e-05
-1.25013e-05
-1.79205e-05
3.41777e-05
-3.37978e-05
7.39493e-06
5.94537e-05
0.000102923
1.58973e-05
2.07394e-06
6.60837e-05
-5.49522e-05
-6.42202e-05
4.83613e-06
5.86049e-05
-3.53623e-05
-0.000113618
-3.21853e-05
8.25245e-06
3.0373e-05
4.09409e-06
1.25885e-05
-2.57911e-05
4.0303e-06
-1.99423e-05
-0.000115459
-8.30344e-06
2.34321e-05
1.67682e-05
-9.89938e-06
-1.77941e-05
3.41061e-05
5.38378e-05
-8.89646e-07
-3.26862e-05
-1.44828e-05
1.08395e-05
2.86298e-05
1.41956e-05
-1.13214e-05
4.36342e-05
-9.70031e-06
4.36598e-05
-6.26058e-06
-6.49593e-05
8.33401e-05
7.37386e-06
-2.33587e-05
-5.29963e-05
8.21915e-06
-7.67076e-05
-5.47345e-05
1.69977e-05
-2.35281e-05
6.93036e-05
-5.89245e-05
-1.58969e-05
-3.79689e-06
-4.36548e-05
1.74984e-06
6.90855e-06
-1.5634e-05
-1.26814e-05
-6.3132e-06
-2.87474e-05
6.35838e-05
-1.27365e-05
2.9887e-05
-1.94596e-05
0.00010666
-6.87318e-05
2.64274e-06
7.97831e-05
-7.2898e-05
-2.11627e-05
-1.82842e-06
-5.65453e-06
-3.07189e-05
-1.66241e-07
6.13108e-05
-4.53602e-05
-3.93705e-06
2.74231e-05
5.10009e-05
6.30179e-06
2.15227e-05
-5.9315e-05
-4.52381e-05
-4.56914e-05
-4.39747e-05
-2.38915e-05
-5.03426e-05
-2.24274e-05
-6.2891e-05
1.11944e-05
0.000117077
1.08844e-05
1.60339e-06
7.116e-06
-1.24834e-05
-9.79609e-05
1.17285e-05
-2.4335e-05
-6.52871e-05
-4.57342e-05
9.77498e-05
-2.84505e-05
2.46855e-05
2.89711e-05
-3.39509e-05
9.19263e-05
-5.06376e-05
-3.13995e-05
4.17465e-07
2.26259e-05
5.23942e-05
-4.63505e-05
3.01935e-06
-7.25872e-05
3.62424e-05
4.53801e-05
5.10276e-05
4.9612e-05
1.1462e-05
6.31437e-06
1.38576e-05
1.41456e-06
1.35626e-05
-5.94298e-05
-5.26088e-05
-3.14447e-05
3.68987e-05
-1.13051e-06
4.39421e-06
1.65976e-05
1.01097e-05
-4.5674e-05
-5.6707e-05
-2.16053e-05
3.75323e-06
3.02102e-05
2.47173e-05
-3.70557e-05
-4.6816e-05
-8.03272e-05
-3.89203e-05
8.4645e-05
4.35198e-05
1.98977e-05
-8.1755e-06
-6.95745e-06
-5.38758e-05
3.58438e-05
-6.1851e-05
7.90431e-05
-1.59476e-05
-3.99176e-05
-6.26176e-05
3.51212e-05
5.15337e-05
1.97045e-06
-3.47022e-06
-9.94967e-06
5.45721e-05
-4.35938e-05
-3.2004e-05
3.58506e-05
-2.33699e-05
-7.19377e-06
3.16271e-05
-2.36782e-05
4.79086e-05
6.11597e-05
-1.50187e-05
5.83353e-05
-1.60108e-05
-5.55502e-05
-4.1118e-05
3.92951e-05
8.73667e-05
-9.01858e-06
2.3906e-05
5.31231e-05
-2.11864e-06
3.75919e-05
-6.11143e-05
-5.37821e-05
4.75653e-05
-2.97433e-05
-7.41598e-05
-1.30143e-05
3.82878e-06
-4.95901e-05
-1.00632e-05
1.48062e-05
3.36766e-06
-4.77561e-05
-3.26615e-05
4.77955e-06
4.40959e-05
4.04309e-05
-4.65774e-05
-4.65792e-05
9.95398e-06
6.58096e-05
1.77753e-05
-1.76013e-05
-0.000102061
4.74704e-05
-2.01671e-05
-7.77585e-06
-8.79902e-06
4.50329e-05
-5.59166e-06
-5.70052e-05
-1.9311e-05
-3.39671e-05
4.75906e-05
2.16512e-05
-2.22096e-05
-2.47787e-05
-2.54152e-05
-5.89085e-06
-1.15662e-05
-4.13181e-05
-4.02355e-05
1.20525e-06
-4.48258e-05
2.04252e-05
3.38105e-06
-2.82916e-05
3.01639e-05
9.34827e-06
-6.713e-05
-4.05739e-05
7.09337e-05
-3.39556e-05
-2.67517e-05
2.17735e-05
1.56349e-05
1.44395e-05
-8.90158e-06
-1.19939e-05
1.44326e-05
8.7028e-05
-9.70089e-07
1.24229e-05
-5.59281e-05
-1.92777e-05
3.90811e-05
3.06964e-06
-4.05499e-05
7.56618e-06
6.72851e-05
3.9499e-05
-7.47544e-05
-3.48639e-05
2.46884e-05
-5.16151e-05
3.76708e-06
-4.08543e-05
-1.83189e-05
8.32828e-05
-3.53508e-05
-3.5636e-05
-9.10205e-06
-2.37043e-05
-7.61583e-05
-4.31738e-05
-3.4453e-05
3.0332e-05
-5.93208e-05
-4.43418e-05
-1.38485e-05
2.80144e-05
4.43449e-05
7.11263e-06
-4.18164e-07
-3.37955e-05
5.6317e-05
4.62118e-05
-7.51625e-05
0.00010683
-4.85461e-05
-1.38163e-05
-8.4145e-07