# vtk DataFile Version 1.0
Net Charge Density
ASCII
DATASET STRUCTURED_POINTS
DIMENSIONS 256 128 1
ORIGIN 0 0 0
SPACING 0.15625 0.15625 1
POINT_DATA 32768
SCALARS rhonet float
LOOKUP_TABLE default
-3.89607e-06
-9.51274e-05
0.000144792
9.63218e-05
3.56844e-05
0.000120451
-0.000118445
9.18584e-05
0.000154216
2.28991e-05
-3.75605e-05
0.000108726
0.00010382
7.94454e-05
0.000109346
4.99607e-05
8.77432e-05
0.000140235
4.0588e-05
-6.79106e-05
-6.40727e-06
0.00014186
0.000144767
4.77824e-05
3.72678e-05
2.07426e-05
7.74217e-05
9.05889e-05
-1.35219e-05
-7.27426e-05
5.2303e-05
3.97231e-05
4.36689e-05
6.90082e-05
1.24414e-05
0.000171713
1.68071e-05
7.28726e-05
7.73577e-05
-5.53124e-06
2.2932e-05
6.83195e-06
0.000136404
9.39814e-05
2.09389e-05
1.8683e-05
-3.16136e-05
6.95544e-05
0.000116214
7.88725e-05
-1.20072e-05
2.4978e-05
8.34425e-05
0.000148996
3.55957e-05
1.75044e-05
0.000151012
-5.17468e-05
5.67804e-06
7.16957e-05
5.02797e-05
6.06021e-05
7.16792e-06
8.01804e-05
8.22485e-05
-8.03834e-05
4.41819e-05
0.000136175
4.09957e-05
4.82834e-05
7.92337e-05
3.67109e-05
-2.69159e-05
4.96674e-05
-1.15018e-07
5.11559e-05
4.2086e-05
-3.83081e-05
9.21619e-05
0.000106615
8.71842e-05
2.54081e-05
7.49615e-05
0.000101106
4.54681e-05
-4.48001e-06
-1.66908e-05
6.70485e-05
0.000119669
-2.34878e-05
9.00029e-05
-1.47955e-05
-3.90527e-05
-6.21472e-06
-8.99178e-05
5.22719e-05
0.000157961
2.40974e-05
9.16886e-05
-2.49444e-05
0.000157723
9.09185e-05
-3.16929e-06
9.47255e-05
3.90386e-05
0.000130971
-2.57976e-07
-6.85492e-05
2.66288e-06
7.39997e-05
0.00013342
5.79276e-05
2.02986e-05
3.31155e-05
8.04209e-05
4.36594e-05
1.22659e-05
7.49694e-05
5.09601e-05
4.32276e-05
-3.98804e-05
-3.45637e-05
4.04442e-05
2.44898e-05
0.00011572
6.60876e-05
1.82551e-05
8.13098e-05
1.99639e-05
-1.88099e-05
0.000119797
9.26165e-05
-2.24449e-06
3.77492e-05
2.03246e-05
6.79668e-06
4.46092e-05
-3.19161e-05
4.68963e-05
-1.15023e-05
-4.98405e-05
2.32954e-05
2.09623e-05
0.000160761
9.88224e-05
2.06369e-06
0.000137836
1.15241e-05
-3.11241e-05
0.000132419
1.78268e-05
2.91317e-05
0.000108428
-8.34523e-06
3.45045e-05
4.32304e-05
5.74649e-06
3.4271e-05
-5.27629e-06
1.75424e-05
7.67778e-05
2.50086e-05
0.00011271
-2.20691e-05
3.25856e-05
2.55229e-05
5.84619e-05
-6.12719e-05
0.000105448
0.000137295
2.50289e-05
4.32234e-05
7.45823e-05
0.000111579
-2.02681e-05
-8.13359e-06
8.72933e-05
-8.23222e-05
1.15581e-05
3.31802e-05
8.87695e-05
-7.06001e-05
-3.18108e-05
5.65371e-06
1.04988e-05
7.98539e-05
4.14203e-05
7.20924e-05
0.000102554
7.4686e-05
2.48844e-05
0.000198125
8.16121e-05
-6.56988e-05
6.24197e-05
0.000201229
4.75227e-05
8.32755e-05
7.86672e-05
-1.63087e-05
5.95991e-05
0.00014917
4.39016e-05
3.83358e-05
-1.00756e-05
6.97707e-05
-5.98878e-05
5.34232e-05
6.86804e-05
8.5791e-05
6.81024e-05
0.000137439
0.000106096
-2.40526e-05
0.000111081
-0.000131281
0.000102691
9.90946e-05
-5.28727e-05
-3.79214e-05
8.6974e-05
0.000114877
0.000176992
3.40524e-05
7.95297e-05
5.67448e-05
-3.69132e-05
-1.51403e-05
8.69036e-05
6.8607e-05
6.2281e-06
4.16543e-05
2.36377e-05
2.60696e-05
0.000121307
-3.55704e-05
-2.05773e-05
2.75003e-05
5.94518e-05
8.97958e-06
1.84997e-05
8.66937e-05
-5.82666e-05
-3.07336e-07
2.65902e-05
-1.44098e-05
-2.21959e-05
-3.95464e-05
0.000128656
-4.29654e-06
2.10481e-05
-3.85134e-05
0.000102293
2.14378e-05
2.40521e-05
4.18613e-05
-0.0001049
2.47047e-05
-6.30287e-05
-2.51192e-05
-2.38868e-05
5.12265e-05
-2.60442e-05
-7.57644e-05
4.98929e-05
-6.60461e-05
-4.28996e-05
2.33413e-05
-5.99083e-05
-8.02728e-05
3.00235e-06
-4.24261e-05
4.66243e-06
1.08917e-05
-2.15753e-05
-4.06103e-06
-5.82073e-05
-6.74936e-05
-0.000106138
-1.79203e-05
-2.00458e-05
-5.72716e-05
-2.52767e-05
7.73021e-06
-3.07411e-05
-8.5387e-05
-3.53889e-05
-8.36072e-06
2.7442e-05
-7.95682e-05
-6.67486e-05
2.31336e-05
-0.000103178
-3.37882e-05
1.98336e-05
-8.20332e-05
-5.15869e-05
-4.38415e-05
8.67271e-06
3.55993e-05
-2.47124e-05
4.87443e-06
-0.000112384
-3.15172e-05
3.88798e-05
-3.39414e-05
-6.56131e-05
-4.1193e-05
-3.17376e-05
2.98235e-05
-2.8532e-05
-3.5456e-05
-2.34864e-05
-0.000116111
1.48107e-05
-3.3793e-05
4.56301e-05
-5.12686e-05
-5.72857e-05
-3.73456e-05
-3.01476e-05
-6.05666e-05
-1.00289e-05
-7.96343e-05
-0.000109192
1.21046e-05
-4.39818e-05
9.01776e-06
-1.84356e-05
1.72418e-05
-5.13536e-05
-1.04342e-05
4.76098e-05
-2.54939e-05
5.74086e-05
2.163e-07
-3.24122e-05
-5.0444e-05
-8.22559e-05
2.84825e-05
2.44658e-05
-6.1694e-05
-0.000158637
-4.16978e-05
-6.55418e-08
-1.69136e-05
8.77376e-06
5.33122e-05
3.1559e-06
-1.07943e-05
2.47145e-05
-5.96524e-06
3.43231e-05
-2.73114e-05
-6.8472e-06
-1.89489e-06
-4.36436e-05
-0.000106617
-3.96518e-05
-2.96775e-05
-3.55602e-05
1.64218e-05
-5.9124e-05
-4.27188e-05
-1.0673e-06
-5.99993e-06
5.43525e-05
-3.54236e-05
-7.13791e-05
-7.13193e-05
4.01702e-05
1.15475e-05
-5.2351e-05
-1.11549e-05
9.64548e-06
3.18994e-05
-8.57748e-05
1.39619e-05
-6.13796e-05
-7.74162e-06
-3.48631e-05
-1.67096e-05
-4.5566e-05
-6.96027e-05
1.70249e-05
-4.881e-05
-2.07965e-05
1.59821e-05
-1.05537e-05
-2.35452e-05
-1.24411e-05
-3.31041e-05
-4.60116e-05
-1.33577e-05
-4.22456e-05
-8.32311e-06
-5.94475e-05
-7.82578e-05
8.69727e-06
-2.01981e-06
-8.38249e-05
1.0549e-05
-3.22359e-05
-4.36765e-05
-0.000117681
-8.72533e-06
-3.99576e-05
-3.83074e-05
-7.16744e-05
9.37108e-06
3.00051e-05
-1.70409e-05
-2.39991e-05
-1.85543e-06
-5.1122e-05
-2.02557e-05
-8.13482e-05
-6.40949e-05
3.6243e-05
-8.02709e-05
-7.56362e-06
2.37462e-05
2.21167e-05
-5.2781e-05
-2.42528e-06
3.60707e-05
-9.46559e-05
1.02373e-05
-2.21475e-05
3.9703e-05
-4.13514e-05
-2.55484e-05
-5.70051e-06
3.04064e-05
-6.90699e-05
-4.77675e-05
3.67505e-05
-4.79631e-06
2.05915e-06
-4.86567e-05
-0.000107547
-6.60243e-05
-2.66007e-05
-2.24793e-05
-9.32987e-06
-1.88574e-05
-0.00010145
6.32287e-06
3.69592e-05
4.61028e-06
-1.08493e-05
-2.36548e-05
-8.50841e-05
-3.90909e-05
4.81101e-05
-6.9777e-06
-7.51888e-05
-6.46277e-05
-4.37897e-05
3.07562e-05
-5.53512e-05
1.83121e-06
-5.12167e-05
9.71674e-05
1.17974e-05
-4.14067e-05
-5.22411e-05
-4.83994e-05
-4.73995e-05
3.2125e-05
-3.50825e-05
-7.29871e-05
1.69768e-06
-2.53881e-05
-1.98882e-05
4.50562e-06
-1.732e-05
7.05679e-05
5.70889e-05
-6.70663e-05
-3.48983e-05
-2.73378e-05
-7.02046e-05
-2.06061e-05
2.42674e-05
8.58861e-05
-8.70351e-05
6.9344e-06
-4.34534e-05
-3.627e-05
6.90324e-05
3.75876e-05
-6.27586e-05
-4.99131e-06
2.55414e-05
-5.11215e-05
2.26243e-05
-1.34829e-05
-4.80211e-05
-1.98239e-05
3.05497e-06
3.73244e-05
3.42679e-05
-1.23482e-05
-2.31677e-05
-0.000132199
-1.67056e-07
-7.60681e-06
5.12582e-05
-7.35326e-06
-7.36315e-05
5.01657e-06
-3.30424e-05
-1.99105e-06
5.00254e-05
-7.79773e-06
-2.33892e-05
-8.48027e-06
1.05449e-06
-1.92295e-05
7.13236e-05
-5.15233e-05
7.82195e-06
3.1163e-05
6.53437e-05
-4.67901e-05
-2.90638e-05
-1.14905e-05
-2.49563e-05
-9.34282e-05
-2.04819e-05
3.51594e-05
4.88629e-05
3.64084e-05
-1.64524e-05
3.77701e-05
6.14577e-05
-4.75242e-05
4.48449e-05
4.40083e-05
9.82266e-06
-5.10863e-05
1.23071e-05
2.34438e-05
7.04305e-05
4.96679e-05
-3.57144e-05
2.25281e-05
5.27373e-06
-2.51161e-05
4.80087e-05
3.40397e-05
2.11626e-05
-2.89199e-05
-7.34257e-05
2.16751e-05
3.48729e-05
1.4212e-06
-4.63354e-05
1.81724e-06
-1.6571e-05
5.22442e-05
1.9271e-05
-4.25105e-05
-9.05944e-05
6.88445e-06
2.94287e-05
9.43302e-06
3.9076e-05
-4.01768e-05
2.79777e-05
-3.30706e-05
9.02757e-05
1.87056e-05
2.19361e-05
-2.38947e-05
3.89215e-05
7.9507e-05
-1.43016e-06
-1.07866e-05
-4.3123e-05
-5.63422e-05
3.65556e-05
5.69131e-06
-2.97657e-05
3.18508e-05
-3.75104e-05
-1.97683e-05
6.36959e-05
5.06417e-05
-4.80588e-05
-4.18769e-05
-9.31288e-06
-2.63555e-05
-1.3366e-05
5.09451e-05
7.41071e-05
-1.38808e-05
-5.52128e-05
-6.02384e-05
2.25473e-05
4.01646e-05
-3.56471e-05
4.60859e-05
6.0403e-05
1.00422e-05
-2.72853e-05
-6.84017e-05
1.03846e-05
-3.90665e-05
-6.67318e-05
1.89327e-05
-3.86648e-05
-7.26082e-05
1.55347e-05
3.44662e-05
-9.18214e-06
-2.52391e-05
3.49991e-05
6.7194e-05
-7.81415e-06
-2.34849e-05
1.90876e-05
-3.45571e-05
-3.24682e-06
3.17619e-05
-4.33624e-05
-4.44567e-05
-1.29162e-05
6.19076e-05
-1.54723e-05
-1.92421e-05
-9.33884e-07
1.07803e-05
-2.67864e-05
6.43283e-05
6.28643e-07
3.16111e-05
-3.45435e-05
-2.02106e-05
3.29817e-05
-8.92987e-06
-5.33774e-05
-6.58385e-05
-1.97743e-05
2.38372e-06
3.65477e-05
8.36782e-06
-1.8779e-06
1.48289e-05
-2.75734e-05
4.24774e-05
2.79524e-05
9.69109e-05
6.65834e-05
1.94267e-05
1.4567e-05
-1.36634e-05
5.90178e-05
5.77691e-05
-3.53307e-05
8.65557e-05
-1.88478e-05
-2.10222e-05
-5.3937e-05
1.12336e-05
-1.22989e-05
7.03167e-05
-1.0787e-05
6.14929e-06
5.77937e-05
3.47514e-05
-3.56394e-05
-5.85592e-06
4.38266e-05
2.99952e-05
1.48879e-05
3.09432e-06
-6.29965e-05
1.44138e-05
-9.34467e-05
4.10877e-05
-3.34159e-05
-7.29718e-05
6.78631e-06
-4.31376e-05
3.26061e-05
-5.40693e-05
-3.51885e-05
-7.3805e-06
-3.46787e-05
7.78143e-06
5.28587e-05
1.66987e-05
-1.6148e-06
7.61888e-05
-2.89571e-06
5.27893e-05
3.30992e-05
2.69049e-05
3.20124e-05
-4.14016e-05
-7.91212e-05
6.70354e-06
-3.71063e-05
3.38536e-07
3.1288e-05
2.5589e-05
4.62431e-05
-7.34464e-06
3.85575e-05
-1.82482e-05
8.60405e-05
-3.51754e-05
-2.42107e-05
-2.44782e-05
3.9688e-05
3.96362e-05
-5.59597e-06
-1.59823e-05
5.26487e-05
-3.12831e-05
-9.51323e-06
1.32088e-05
3.03081e-05
4.01443e-05
-6.21306e-05
6.55744e-06
-4.02809e-05
7.68163e-05
-2.30575e-05
2.42656e-06
-2.36239e-05
-7.65675e-06
1.05565e-06
-7.58457e-05
1.89058e-05
4.24921e-05
2.73355e-06
-4.68807e-05
-0.000111356
2.32973e-05
1.92826e-05
1.66963e-06
4.11419e-05
-1.26258e-05
3.11458e-06
-2.15393e-05
-7.41896e-05
3.57798e-05
1.81665e-05
-4.43211e-05
1.3806e-05
2.49415e-05
-1.40066e-05
-5.45261e-05
-1.59672e-05
4.84831e-05
-4.49922e-06
-0.000139603
5.79742e-05
3.08062e-05
0.000100899
-3.72751e-05
3.8272e-05
1.96729e-05
-2.19457e-05
-3.16999e-05
-3.15023e-05
5.79787e-05
8.84749e-05
-9.06712e-06
-5.99886e-05
9.21858e-06
8.46398e-06
-1.851e-08
-2.07855e-05
-3.90374e-05
0.000130275
-3.43213e-05
-4.70513e-05
5.37115e-05
-2.79653e-06
2.82284e-06
-3.79191e-05
-6.05411e-05
4.7542e-05
4.84356e-05
-1.7537e-05
3.74635e-05
-5.19096e-05
4.18175e-05
3.39493e-05
-6.99725e-05
2.73661e-05
3.8806e-05
1.67806e-05
-5.26784e-05
6.28681e-05
-2.19621e-05
-4.3101e-05
-7.40401e-06
-2.66794e-05
4.25468e-05
3.65032e-06
2.75732e-05
-4.73879e-05
-6.43719e-06
3.03094e-05
-2.26302e-05
-8.19343e-05
-4.95824e-05
1.36239e-05
3.36363e-05
4.53526e-05
-3.78168e-05
6.72052e-05
-2.02064e-05
-6.23039e-05
4.74693e-05
4.6276e-05
1.24058e-05
3.82876e-05
2.15032e-05
5.87142e-05
-6.50007e-05
-4.25667e-05
-1.3412e-05
4.39056e-05
4.78702e-05
-2.23203e-05
-6.05178e-05
1.9829e-06
-2.4375e-06
-3.00121e-05
1.48918e-05
2.92049e-05
7.28867e-05
7.06636e-05
-3.58252e-05
-0.000140627
2.58455e-05
1.20327e-06
-2.88258e-05
-4.69701e-05
5.72429e-05
3.12583e-05
1.75564e-05
-0.000107817
-1.58476e-05
1.13326e-05
3.99516e-05
3.28133e-05
-4.30103e-05
3.20364e-05
3.74876e-05
-3.91937e-05
2.83309e-05
3.71945e-05
-1.37147e-05
3.56364e-05
-5.44155e-05
8.30446e-05
3.03239e-05
-1.94269e-05
-2.67295e-05
6.84278e-05
4.1218e-05
-2.91596e-05
3.35348e-05
3.9214e-05
3.68366e-05
-3.48375e-05
-2.81513e-05
1.4167e-05
3.52944e-05
-7.1567e-05
-2.1616e-05
4.60052e-05
3.64992e-05
2.31862e-05
-3.1236e-05
-7.13486e-05
2.25483e-05
-3.52726e-05
7.69855e-05
-4.16429e-05
-1.37859e-05
7.45143e-05
-5.40665e-05
4.00399e-06
-1.77848e-05
-5.58043e-05
2.01224e-05
5.95988e-06
5.0582e-05
6.31157e-05
-6.58251e-05
8.14183e-05
-4.32241e-05
-2.44331e-05
2.672e-05
4.39433e-06
9.56829e-06
7.65524e-06
4.39095e-06
-4.22164e-05
2.17026e-05
1.0127e-05
-1.56355e-05
-7.88146e-05
-2.79716e-05
-7.33137e-06
2.62829e-05
6.22857e-06
2.38398e-05
-8.04127e-06
5.26161e-05
3.0096e-05
-3.0796e-05
-8.68593e-05
1.14746e-05
3.87337e-05
1.1161e-05
-2.85618e-05
-9.12475e-06
-2.48197e-06
2.21186e-05
-3.22971e-06
2.53442e-05
2.25466e-05
3.20965e-05
-2.08742e-05
-3.06289e-06
6.05534e-06
-3.41365e-06
3.49666e-05
-2.44871e-05
5.34742e-05
1.96627e-05
1.27886e-05
-1.15689e-05
2.92524e-05
2.87069e-06
3.3958e-05
-1.87162e-05
-2.88675e-06
-6.90413e-05
2.46688e-05
-5.03846e-06
-1.26839e-05
2.05983e-05
-2.63401e-05
-2.66195e-06
-3.0247e-05
-7.38935e-05
-1.16541e-05
0.000124286
-9.67181e-05
2.30563e-05
4.08883e-05
1.12084e-05
1.89701e-05
2.29744e-05
-6.504e-05
-1.85564e-05
-3.58941e-05
9.8882e-06
-2.25084e-05
-0.000114619
5.06444e-05
-0.000120174
-5.21555e-05
0.000129995
-2.85544e-05
-3.29313e-05
1.39812e-05
-3.08792e-06
-4.58444e-06
-6.87179e-05
5.01052e-07
2.54062e-05
-3.06806e-05
-4.83696e-05
-2.09836e-05
3.77463e-05
3.99072e-05
1.09905e-05
-3.37756e-05
2.43068e-05
4.91925e-05
4.58611e-05
-7.13924e-05
-6.57424e-05
-4.48683e-05
5.14663e-05
2.45066e-06
-1.54693e-06
-6.96707e-05
3.41795e-07
-1.04238e-05
6.89412e-06
-2.29041e-05
-2.35531e-06
-3.06219e-05
3.27411e-05
-3.22668e-06
-1.03378e-05
-2.52567e-05
2.84623e-05
9.52228e-05
-3.02617e-05
3.21709e-05
4.43811e-05
-4.5409e-05
-0.000101101
-3.30771e-05
0.00011101
6.25444e-05
-5.28279e-05
-0.000107186
-1.18129e-05
6.85671e-05
3.46117e-05
-5.40469e-05
-5.21373e-05
4.75178e-05
-4.06377e-05
-0.000119436
6.1203e-05
-1.81565e-05
-3.11732e-05
0.000105493
-4.54733e-05
-9.29434e-05
-5.38463e-05
9.50554e-06
-5.54984e-05
1.67231e-05
4.28199e-06
-7.23687e-05
6.52391e-06
4.5925e-05
6.7777e-06
-2.06684e-06
5.32218e-05
2.83378e-05
-3.75982e-05
-4.8551e-05
0.000104193
-1.6281e-05
-5.72775e-06
-2.96998e-05
-2.67243e-06
-4.58122e-05
8.22789e-06
-1.3111e-05
-4.38889e-05
-3.36708e-05
-5.49546e-05
4.80603e-05
-3.43903e-05
5.50939e-05
-3.26773e-05
-2.49943e-05
-9.60939e-06
3.26965e-05
-4.34384e-05
8.21741e-05
3.99048e-06
1.01078e-05
-2.64165e-05
-1.68581e-06
5.18319e-05
-5.05232e-05
7.65342e-05
-2.69969e-05
-2.84479e-05
5.25324e-06
1.91294e-05
5.75269e-05
-1.55075e-05
1.41477e-05
1.54795e-05
9.67543e-05
-2.60591e-05
2.79769e-06
-6.86481e-05
-4.36418e-06
5.35534e-06
-6.2352e-07
-1.12273e-05
2.76119e-05
-7.06455e-05
2.38866e-05
3.64641e-05
-5.86128e-06
-1.47322e-05
5.85362e-05
-1.46392e-06
5.05592e-07
-8.36351e-06
-6.68825e-05
-7.4585e-06
-5.66776e-05
5.49139e-05
-1.55673e-05
-6.51173e-05
1.93967e-05
-2.50093e-05
1.49546e-05
4.44493e-05
-8.87853e-06
-5.64919e-05
-7.07041e-05
-8.34116e-06
-2.96301e-05
-2.1524e-06
-1.83214e-05
-1.89315e-06
-0.000102778
8.74791e-06
3.24819e-05
3.07964e-05
-0.000103662
-3.61556e-05
2.02425e-05
8.39117e-05
4.75289e-06
-1.31461e-05
3.19694e-05
7.14674e-07
-3.71368e-05
-7.51379e-05
-6.92117e-05
-2.21224e-06
-7.097e-05
1.36695e-06
-4.37517e-05
5.21013e-05
-3.20331e-05
-2.1123e-05
9.38214e-06
-1.06101e-06
4.85103e-06
-2.59299e-05
5.7298e-05
-2.03848e-05
4.02208e-05
1.71229e-05
-4.36113e-05
4.79154e-06
-4.09896e-05
-3.49246e-07
2.30945e-05
-3.31628e-05
1.34489e-05
1.23587e-05
-2.61037e-05
-4.63813e-05
1.17682e-05
-4.40201e-05
0.000100773
4.16168e-05
5.95758e-05
5.7274e-06
3.63542e-06
3.72177e-05
-2.83865e-05
-2.65327e-05
-3.87038e-05
-3.32443e-05
-2.94531e-06
-4.83345e-06
-7.42389e-05
-9.21178e-05
-4.12925e-05
9.36037e-05
1.79686e-05
2.46139e-05
5.079e-05
-3.90926e-05
-4.8694e-05
-6.07769e-05
2.91876e-05
-7.01526e-05
2.39774e-05
5.71006e-05
1.43811e-05
-8.54444e-05
6.4892e-05
5.64137e-06
1.15014e-05
-0.000120717
5.3374e-05
7.36082e-05
5.39189e-06
1.38732e-05
1.18414e-05
-9.6513e-06
3.66956e-05
-3.03431e-05
4.71815e-05
6.17246e-05
-4.68059e-06
-4.04326e-05
-2.984e-05
4.83403e-06
-1.19233e-06
4.36947e-05
-1.85007e-06
-1.1377e-05
-1.70614e-05
7.82476e-05
-4.58339e-06
1.79145e-05
-3.62855e-05
-7.78635e-05
7.38348e-05
-9.19307e-05
-5.20796e-06
2.09287e-05
2.30595e-06
7.05891e-05
3.83813e-05
7.42124e-06
5.50142e-05
-1.01448e-05
4.60941e-05
-1.68377e-05
-5.88746e-05
-4.91892e-05
5.14217e-05
5.45881e-05
-1.98534e-05
5.81006e-05
3.02002e-05
1.38805e-05
2.24963e-05
6.25569e-05
6.90157e-06
-8.80084e-05
-1.3425e-05
-5.00749e-06
4.87001e-05
5.99249e-05
6.30917e-05
1.42644e-06
2.14424e-05
-2.66378e-05
-9.90415e-06
-6.22044e-05
-1.60281e-05
3.25951e-05
-3.8536e-05
-1.90414e-05
5.31536e-05
-2.28165e-05
1.54099e-05
-4.23553e-05
-5.64614e-07
-5.11487e-05
-1.07911e-05
-0.000114607
2.06344e-05
1.91705e-05
7.28542e-05
2.73273e-05
-4.94905e-05
5.05784e-05
5.27878e-05
6.41992e-05
-7.99051e-06
4.43968e-05
-4.86511e-05
-2.58866e-05
-3.12887e-05
9.76645e-05
-4.46026e-05
-4.87096e-05
2.70448e-05
-5.04581e-05
1.36548e-05
-9.01837e-05
-0.000131355
6.048e-05
5.67491e-05
-1.70094e-05
2.47729e-05
-9.10845e-06
5.16706e-05
-8.06581e-05
3.82911e-05
3.7835e-05
1.59073e-05
-7.97608e-06
-6.65477e-06
3.57421e-05
3.13772e-05
-9.32618e-05
-4.72954e-05
-9.38075e-05
-4.97692e-05
6.84748e-05
-3.54397e-05
9.14512e-06
-3.66223e-05
3.87212e-05
1.69345e-05
4.47608e-05
-5.40498e-05
2.94941e-05
6.61317e-05
1.22408e-05
-6.64295e-05
1.13412e-06
1.4817e-05
-1.36932e-05
6.08949e-05
-9.08971e-07
7.8931e-05
9.09693e-06
5.26162e-05
-9.66361e-05
3.41136e-05
6.60541e-06
-1.27822e-05
-4.43456e-05
-2.06706e-05
3.15043e-06
-9.30857e-07
-6.30615e-05
-0.000100798
-4.15876e-05
-9.15081e-05
-4.8186e-05
5.6292e-05
-1.52455e-05
-5.22903e-05
-2.41201e-05
-1.0829e-05
-4.5769e-05
-4.23094e-05
1.19054e-05
2.83609e-05
-1.41363e-05
-5.28245e-05
-6.13478e-05
1.77324e-05
1.0733e-05
-2.08274e-05
5.96304e-05
1.79047e-06
2.51199e-05
-2.36351e-05
5.88673e-05
3.18956e-05
4.76108e-05
-7.31893e-05
7.22465e-05
-0.000100922
-6.24137e-06
6.49311e-05
8.48924e-06
3.23066e-05
-3.30678e-06
-4.32207e-05
2.37813e-06
1.99969e-05
-1.2729e-05
9.59355e-06
3.61403e-05
2.75427e-05
6.9214e-05
-2.72435e-06
-6.32236e-05
-6.14556e-06
-7.61123e-06
-1.02114e-05
4.45028e-05
5.20097e-06
2.67308e-05
-6.63009e-06
-4.79829e-06
-2.94809e-05
1.43551e-05
5.68992e-06
6.79198e-05
9.01218e-06
3.43912e-05
1.84251e-05
1.29044e-05
-4.46524e-05
3.45932e-05
3.36549e-05
1.93855e-06
-1.8809e-05
4.46873e-05
-5.23892e-05
6.7536e-05
7.74651e-05
6.37188e-06
8.13847e-05
-3.18106e-05
2.20671e-05
-1.73567e-05
-2.87807e-05
-6.86583e-05
1.19238e-05
2.4791e-05
1.23706e-05
-3.48672e-05
2.16783e-05
-2.20749e-05
-3.52471e-06
1.23347e-05
1.70944e-06
2.97126e-05
-6.88564e-05
-1.33736e-05
9.18958e-05
-3.43518e-05
1.47282e-05
-1.23627e-05
4.94563e-05
2.42069e-05
-4.44683e-05
5.05934e-05
0.000106778
9.66932e-05
6.52508e-05
8.89646e-07
-7.20657e-06
-1.1456e-05
6.66899e-05
-5.448e-06
4.01794e-05
-2.3398e-05
4.17557e-05
-3.41275e-05
-2.13983e-05
6.28072e-06
-2.62635e-05
3.58212e-05
-8.93143e-05
4.69465e-05
-3.57551e-05
3.30249e-05
2.34644e-05
-9.97121e-05
2.21339e-05
3.57017e-05
-1.87461e-05
2.13264e-05
-6.78232e-05
2.7162e-05
-5.16982e-05
5.68144e-05
4.88444e-05
-1.74802e-05
3.8041e-05
4.5417e-05
1.17872e-05
-8.37992e-06
2.07494e-05
-2.0564e-05
5.28254e-05
-7.57062e-05
-4.2627e-05
-7.6727e-06
2.04984e-05
-1.54354e-05
-3.1233e-05
1.17396e-05
6.21653e-05
4.88085e-05
4.33647e-06
-0.000127571
-5.02239e-05
-6.86673e-05
-6.60989e-05
3.09134e-05
7.61505e-05
-7.0136e-05
-7.02997e-06
9.28552e-06
4.82404e-05
3.84008e-06
8.47306e-06
-6.75762e-05
-1.8583e-05
1.21737e-05
-8.66875e-06
-3.19522e-05
-1.42837e-05
3.18373e-06
7.32997e-06
1.82405e-05
2.56518e-05
-6.78838e-05
-4.71459e-06
3.49289e-05
-5.05334e-05
1.07936e-05
-1.5015e-05
-1.63054e-05
-2.9539e-05
9.53887e-05
2.63907e-05
-1.76693e-05
-2.15014e-05
-1.27993e-05
8.03312e-06
-1.35809e-05
2.63911e-05
-7.18515e-06
-1.90844e-05
2.17281e-05
5.39328e-05
-9.03432e-05
5.79039e-05
-1.44776e-05
-1.46052e-05
-3.8323e-05
-4.54378e-05
2.61618e-05
5.74816e-05
2.07159e-05
1.80586e-05
2.61944e-05
-7.22206e-06
-2.65965e-05
2.38705e-05
-3.81796e-05
-3.29991e-05
2.86613e-05
4.19619e-06
5.34137e-05
-1.29023e-05
-4.5459e-06
9.10501e-05
1.6332e-05
1.6914e-05
-4.63275e-05
3.55741e-05
-3.91719e-05
2.29464e-05
1.72226e-05
3.08594e-06
6.80587e-05
6.72808e-05
-1.70231e-05
-7.54686e-06
4.55857e-05
-1.23879e-05
-6.61297e-06
0.000122596
3.26281e-05
1.82125e-05
2.49493e-05
-5.22542e-05
-2.22391e-05
-5.70166e-05
1.3042e-06
7.6904e-06
2.41785e-05
1.07717e-05
-5.20688e-05
1.76704e-05
6.44936e-05
-6.11889e-05
5.44069e-05
-4.49324e-05
-7.05204e-05
6.23055e-06
3.27919e-05
4.70877e-05
1.32772e-06
1.32956e-05
-7.786e-05
-2.81831e-05
-6.89249e-06
0.000112601
3.68478e-05
-3.34254e-05
4.85628e-05
3.18348e-05
1.14887e-05
6.94904e-05
0.00013327
-7.38595e-05
-4.20371e-05
-1.68971e-05
2.04114e-05
8.13301e-06
-1.95543e-05
3.47552e-05
5.05913e-05
-6.30396e-05
-4.2269e-05
1.79628e-05
5.70349e-05
-6.66711e-07
2.83975e-05
-3.478e-05
-8.23163e-05
-3.1693e-05
-5.51025e-05
-1.69487e-05
6.43998e-05
-5.57776e-05
5.25211e-05
-0.000112341
-7.1065e-05
-1.52233e-05
-1.60268e-05
-3.59298e-05
5.28322e-05
4.40279e-05
-4.7551e-06
-6.05781e-05
-2.03247e-05
1.72129e-05
2.40915e-05
-2.15e-05
-3.80278e-05
1.84209e-05
-5.22973e-05
-1.48038e-05
-9.04264e-05
-1.86141e-05
-1.40987e-05
0.000121307
-2.547e-05
5.25204e-05
3.79472e-05
3.11937e-05
-3.85307e-05
-5.10295e-06
-4.49665e-05
2.62947e-05
1.12428e-05
-1.8606e-05
1.74432e-05
-3.76218e-05
8.71113e-06
-3.17956e-05
7.14656e-05
-7.47014e-05
0.000101809
5.19638e-05
3.18049e-05
1.94154e-05
4.63657e-05
-3.00456e-06
1.62402e-05
7.99991e-05
3.67593e-06
-1.37993e-05
-5.21087e-05
-5.62182e-05
2.68222e-05
-3.78022e-05
-4.78234e-05
2.88633e-05
-2.68995e-05
-1.16548e-05
-5.028e-05
3.10764e-05
-2.00595e-05
3.8109e-05
-8.71739e-05
-4.69049e-05
1.67185e-05
4.92433e-05
9.12789e-06
1.4262e-06
-6.69425e-05
-7.27305e-05
-1.43615e-05
-9.74443e-06
-1.56977e-05
2.67382e-05
-9.21224e-05
-5.88645e-05
-1.25881e-05
5.10602e-05
-8.97493e-05
7.86013e-05
1.30896e-05
1.5168e-05
-0.000114672
-4.19711e-05
1.0648e-05
8.84157e-05
-6.75325e-06
-6.93079e-06
1.08081e-05
-9.15194e-05
-1.49584e-05
1.07788e-05
5.18091e-05
-3.28287e-05
4.25938e-05
9.43104e-06
7.85454e-07
4.03607e-05
-3.83495e-06
2.66727e-05
-2.21869e-05
6.11413e-07
2.16451e-06
1.83089e-05
-2.01631e-05
-7.52346e-05
-8.20156e-05
-4.0883e-05
3.06886e-05
3.11451e-05
-1.76032e-05
-1.14897e-05
3.87502e-05
9.27399e-06
1.17535e-05
-4.44883e-05
-5.27482e-05
-4.26524e-05
9.60722e-05
-3.91066e-05
-6.17567e-05
-4.5125e-05
4.72041e-06
-4.15782e-05
-1.74751e-06
2.57661e-05
4.81147e-05
-3.50771e-05
2.89143e-05
3.42638e-05
2.19492e-05
-2.03149e-05
-2.84291e-05
2.95843e-05
6.23249e-05
1.81495e-05
-1.77089e-05
-4.22895e-05
-3.51842e-06
6.32223e-05
3.54694e-06
7.63219e-06
-5.29387e-06
1.01698e-05
2.74981e-05
2.91364e-05
-2.60755e-05
-5.97398e-05
8.6788e-05
3.29318e-05
-1.45721e-05
-1.42369e-05
5.72905e-05
3.84287e-06
9.81886e-05
0.000121367
-2.85939e-05
2.49975e-05
7.872e-06
-1.86717e-05
-1.70153e-05
-7.32375e-05
0.00011208
-1.2597e-05
-6.01781e-05
7.86269e-06
3.08845e-05
9.78436e-06
7.84057e-06
1.71355e-05
4.8778e-08
-2.67228e-05
-2.5681e-05
-4.13371e-05
-4.55837e-05
-1.76241e-05
-7.76607e-06
-4.82695e-05
7.13977e-05
1.6424e-05
3.01738e-05
-3.19596e-05
1.39845e-05
-1.39403e-05
-1.55893e-05
4.4764e-06
-1.65857e-05
8.27659e-05
5.56019e-05
5.6721e-06
3.54117e-05
2.8623e-06
-1.63054e-05
2.07494e-05
9.63209e-06
-1.45012e-05
-4.88885e-05
-4.07484e-05
-9.69181e-06
4.12576e-05
-2.15806e-05
-3.41521e-05
5.64966e-05
-1.37314e-05
-5.04195e-05
3.84734e-05
-2.33622e-05
-1.19582e-06
-5.9447e-05
5.95232e-06
6.40076e-05
-7.39718e-05
-2.23715e-05
-4.28897e-06
-7.43151e-05
-1.58094e-05
5.60065e-05
-2.4102e-05
5.20148e-05
4.58726e-05
-3.16423e-05
0.000122277
2.89963e-05
1.20706e-05
-2.74087e-05
-3.44682e-05
-3.20199e-05
5.98459e-05
4.27903e-05
-2.5427e-05
-1.62862e-05
4.25265e-05
4.55979e-05
-7.08054e-05
-4.53844e-05
-1.75915e-05
6.00136e-05
3.70808e-05
4.36974e-05
-7.64523e-06
2.17552e-05
1.48431e-05
1.4781e-05
3.49518e-05
1.44988e-05
-7.1735e-05
5.90798e-05
3.93528e-05
-1.62127e-05
4.74526e-05
-1.8456e-05
-3.84231e-05
8.46093e-05
5.78983e-05
5.29932e-05
-2.82947e-05
-1.40262e-05
-3.38163e-06
6.5687e-05
1.70158e-05
1.81665e-05
-1.45182e-05
-3.22156e-05
8.30169e-06
5.70647e-05
3.72091e-05
6.89619e-05
3.92864e-05
3.07863e-05
-1.59346e-05
4.17493e-05
8.47306e-06
-3.21823e-05
-1.07549e-05
-1.45923e-05
5.39317e-05
1.21889e-05
2.1124e-05
-2.64747e-05
1.12986e-05
-2.39077e-05
-1.44509e-05
1.09985e-05
-7.7351e-06
4.69002e-06
1.68593e-05
6.67059e-05
1.57986e-05
-0.000107579
-8.24996e-05
6.52287e-06
-5.85075e-05
5.17323e-05
1.84864e-05
1.66777e-05
-7.07684e-05
5.68503e-06
-1.86225e-05
-4.33441e-05
5.8328e-05
-4.15358e-05
-7.76743e-05
-1.33209e-05
-3.74747e-05
-1.09978e-06
5.06304e-05
3.4345e-05
5.21401e-05
2.95318e-05
4.71441e-05
-2.02374e-05
0.000134813
5.51661e-05
-3.82703e-05
-1.12217e-05
0.000111733
1.12853e-06
-1.38329e-05
-2.07329e-05
-1.05338e-05
5.75127e-06
2.51083e-05
-6.47178e-05
1.22306e-06
0.00011825
2.02317e-05
-6.96785e-05
-8.34584e-05
9.06892e-05
4.29543e-05
-6.09939e-05
-2.33622e-06
4.5246e-06
-2.48617e-05
-7.49836e-05
-6.30133e-06
3.39792e-05
6.28866e-05
-2.65869e-06
-2.97548e-05
-6.67727e-05
-1.08316e-05
7.42299e-06
3.03183e-05
-1.26915e-05
1.26478e-05
-3.24744e-05
-1.54034e-05
4.65959e-05
-6.06058e-07
-7.33233e-05
-3.61173e-05
3.19344e-05
5.07121e-05
5.52052e-05
-3.86605e-05
-2.71014e-05
-1.73156e-06
4.00441e-05
-1.2883e-05
1.1524e-05
2.75385e-05
1.51002e-05
2.02366e-05
3.27819e-05
-0.000103584
-2.37208e-05
5.62994e-05
-3.56054e-05
-8.56412e-05
0.000101618
-2.90701e-05
2.15794e-05
-5.19505e-05
6.29341e-06
-5.95588e-05
3.80247e-06
-4.01157e-05
2.21786e-05
-9.73768e-06
6.3583e-05
-2.76122e-05
-2.54394e-05
9.06728e-05
-5.5589e-05
-3.51443e-05
1.47804e-05
-2.30945e-05
3.46851e-05
-4.1014e-05
-1.09317e-05
2.98409e-05
3.45645e-05
-4.78459e-05
-5.78744e-05
-3.72984e-05
3.58617e-05
-1.02362e-05
-1.76751e-05
3.8347e-05
4.55102e-06
-3.07261e-05
-6.31751e-05
6.1912e-06
-5.68882e-05
0.000120349
-0.000117729
-6.80871e-05
1.01868e-05
-1.02163e-05
2.82159e-05
-1.96024e-05
-6.25569e-06
3.50749e-05
9.93139e-06
-5.96482e-05
5.4057e-05
-2.97579e-05
-7.2585e-07
-9.39076e-06
-2.64801e-05
5.89003e-05
9.35845e-05
7.95011e-05
-1.68917e-05
-6.82937e-05
-7.77039e-05
4.75626e-05
-1.31794e-06
1.17443e-05
5.16309e-05
-6.31509e-05
2.21429e-05
3.45723e-05
-3.89621e-05
4.92731e-05
9.85328e-06
-2.73692e-05
-7.1801e-05
-2.20723e-06
9.41276e-06
5.68596e-05
-2.01399e-05
-8.6223e-06
7.08993e-06
9.57167e-07
-2.9198e-05
-3.6772e-05
9.87435e-07
-7.08341e-06
-7.77073e-05
4.07123e-05
2.28044e-05
-2.33531e-05
-2.82733e-05
6.35616e-06
-3.10615e-05
-2.37784e-05
5.87655e-05
3.77757e-05
-8.88546e-05
1.88743e-05
2.82155e-05
2.42069e-05
-1.97259e-05
3.13716e-05
2.67721e-05
-2.7891e-05
-1.14413e-05
4.39798e-05
-1.84721e-05
6.28992e-06
-9.41555e-06
3.67077e-05
-1.65384e-05
-2.21905e-05
-3.26341e-05
2.11543e-05
-9.0529e-05
-2.25271e-05
7.17782e-06
-1.67803e-05
-5.12953e-05
-4.15263e-05
3.02581e-05
1.87582e-05
1.34512e-05
6.79973e-05
0.000103678
-2.68699e-05
-5.62215e-05
-7.36886e-06
-8.72905e-06
-8.22067e-06
-0.000119192
3.0766e-05
9.97076e-05
7.93552e-05
2.35238e-05
2.8949e-06
3.23562e-05
6.61914e-06
-1.2741e-05
-1.12373e-05
3.50166e-06
6.08948e-05
-6.73509e-06
5.99329e-05
-9.10775e-06
-4.93438e-05
-1.25013e-05
-1.79211e-05
3.41777e-05
-3.37976e-05
7.39587e-06
5.94538e-05
0.000102923
1.58967e-05
2.07429e-06
6.60836e-05
-5.49534e-05
-6.422e-05
4.83601e-06
5.86053e-05
-3.5362e-05
-0.000113619
-3.21866e-05
8.25257e-06
3.03729e-05
4.09409e-06
1.25882e-05
-2.57904e-05
4.0303e-06
-1.99422e-05
-0.000115459
-8.30297e-06
2.34316e-05
1.67676e-05
-9.89949e-06
-1.77937e-05
3.41062e-05
5.38379e-05
-8.89413e-07
-3.26862e-05
-1.44826e-05
1.08391e-05
2.86296e-05
1.41952e-05
-1.13212e-05
4.36334e-05
-9.70019e-06
4.36599e-05
-6.26012e-06
-6.496e-05
8.33399e-05
7.3734e-06
-2.33589e-05
-5.29967e-05
8.21915e-06
-7.67083e-05
-5.47343e-05
1.69987e-05
-2.35284e-05
6.93041e-05
-5.89245e-05
-1.5897e-05
-3.79654e-06
-4.36555e-05
1.75007e-06
6.90878e-06
-1.56338e-05
-1.26812e-05
-6.3132e-06
-2.87474e-05
6.3584e-05
-1.27363e-05
2.98872e-05
-1.94584e-05
0.000106661
-6.8732e-05
2.64309e-06
7.97831e-05
-7.28976e-05
-2.11627e-05
-1.82854e-06
-5.65476e-06
-3.07189e-05
-1.66357e-07
6.13111e-05
-4.53605e-05
-3.93682e-06
2.74234e-05
5.10007e-05
6.30203e-06
2.15231e-05
-5.93152e-05
-4.52385e-05
-4.56917e-05
-4.39743e-05
-2.38923e-05
-5.03428e-05
-2.24278e-05
-6.28908e-05
1.11939e-05
0.000117077
1.0884e-05
1.6035e-06
7.11589e-06
-1.24834e-05
-9.79601e-05
1.17284e-05
-2.4335e-05
-6.52869e-05
-4.57342e-05
9.77496e-05
-2.84509e-05
2.46854e-05
2.89711e-05
-3.39511e-05
9.19256e-05
-5.06376e-05
-3.13992e-05
4.17815e-07
2.26259e-05
5.23935e-05
-4.63509e-05
3.01923e-06
-7.2587e-05
3.62428e-05
4.53801e-05
5.10279e-05
4.9612e-05
1.14618e-05
6.31437e-06
1.38577e-05
1.41445e-06
1.35626e-05
-5.943e-05
-5.26094e-05
-3.14449e-05
3.68988e-05
-1.13074e-06
4.39398e-06
1.65971e-05
1.01095e-05
-4.56735e-05
-5.67073e-05
-2.16058e-05
3.75393e-06
3.02102e-05
2.47178e-05
-3.70555e-05
-4.68163e-05
-8.03268e-05
-3.89208e-05
8.46452e-05
4.35193e-05
1.98976e-05
-8.17562e-06
-6.95814e-06
-5.38765e-05
3.58442e-05
-6.1851e-05
7.90427e-05
-1.59475e-05
-3.99173e-05
-6.2617e-05
3.51213e-05
5.15332e-05
1.97068e-06
-3.47081e-06
-9.95002e-06
5.45724e-05
-4.35938e-05
-3.20035e-05
3.58509e-05
-2.33704e-05
-7.19342e-06
3.16272e-05
-2.36786e-05
4.79084e-05
6.11597e-05
-1.50178e-05
5.83356e-05
-1.60112e-05
-5.55505e-05
-4.11182e-05
3.92956e-05
8.73668e-05
-9.01869e-06
2.39061e-05
5.3123e-05
-2.11806e-06
3.75927e-05
-6.11143e-05
-5.3782e-05
4.7565e-05
-2.97427e-05
-7.41595e-05
-1.30141e-05
3.82913e-06
-4.959e-05
-1.00627e-05
1.48059e-05
3.36755e-06
-4.77551e-05
-3.26616e-05
4.77966e-06
4.40957e-05
4.0431e-05
-4.65774e-05
-4.65793e-05
9.95398e-06
6.58098e-05
1.7776e-05
-1.76015e-05
-0.000102062
4.74706e-05
-2.01666e-05
-7.77561e-06
-8.7989e-06
4.50332e-05
-5.59154e-06
-5.70057e-05
-1.93105e-05
-3.39665e-05
4.75909e-05
2.16514e-05
-2.22094e-05
-2.47788e-05
-2.54151e-05
-5.89038e-06
-1.15656e-05
-4.13186e-05
-4.02359e-05
1.20583e-06
-4.48264e-05
2.04251e-05
3.38093e-06
-2.82915e-05
3.01647e-05
9.34827e-06
-6.71297e-05
-4.05735e-05
7.09335e-05
-3.39558e-05
-2.67513e-05
2.17736e-05
1.5636e-05
1.44398e-05
-8.9017e-06
-1.19939e-05
1.44325e-05
8.70284e-05
-9.6974e-07
1.24229e-05
-5.5928e-05
-1.92772e-05
3.90813e-05
3.06999e-06
-4.05505e-05
7.56606e-06
6.72846e-05
3.94989e-05
-7.4754e-05
-3.48643e-05
2.46884e-05
-5.16152e-05
3.76743e-06
-4.08547e-05
-1.8319e-05
8.32834e-05
-3.53504e-05
-3.56359e-05
-9.10193e-06
-2.37033e-05
-7.6158e-05
-4.31736e-05
-3.44521e-05
3.03319e-05
-5.93204e-05
-4.4342e-05
-1.38481e-05
2.80144e-05
4.43452e-05
7.11181e-06
-4.18746e-07
-3.37958e-05
5.63174e-05
4.62119e-05
-7.51619e-05
0.000106831
-4.85466e-05
-1.38163e-05
-8.41683e-07
-1.47608e-05
-6.57004e-05