# vtk DataFile Version 1.0
Net Charge Density
ASCII
DATASET STRUCTURED_POINTS
DIMENSIONS 256 128 1
ORIGIN 0 0 0
SPACING 0.15625 0.15625 1
POINT_DATA 32768
SCALARS rhonet float
LOOKUP_TABLE default
-3.89642e-06
-9.51277e-05
0.000144792
9.63222e-05
3.56843e-05
0.000120451
-0.000118445
9.18583e-05
0.000154216
2.28999e-05
-3.75605e-05
0.000108726
0.00010382
7.94461e-05
0.000109346
4.9961e-05
8.7743e-05
0.000140236
4.05877e-05
-6.79102e-05
-6.40703e-06
0.000141859
0.000144767
4.77822e-05
3.7268e-05
2.07429e-05
7.74213e-05
9.05889e-05
-1.35216e-05
-7.27425e-05
5.23025e-05
3.97237e-05
4.36688e-05
6.90082e-05
1.24413e-05
0.000171713
1.68071e-05
7.28723e-05
7.73577e-05
-5.53078e-06
2.29322e-05
6.83207e-06
0.000136404
9.39808e-05
2.09387e-05
1.86828e-05
-3.16133e-05
6.95549e-05
0.000116213
7.8872e-05
-1.20072e-05
2.49781e-05
8.34424e-05
0.000148996
3.55954e-05
1.7504e-05
0.000151012
-5.17468e-05
5.67827e-06
7.16954e-05
5.02795e-05
6.0602e-05
7.16827e-06
8.01802e-05
8.22492e-05
-8.03831e-05
4.41821e-05
0.000136175
4.09958e-05
4.82835e-05
7.92339e-05
3.67108e-05
-2.69159e-05
4.96671e-05
-1.15018e-07
5.11555e-05
4.20861e-05
-3.8308e-05
9.21623e-05
0.000106615
8.71845e-05
2.54083e-05
7.49615e-05
0.000101106
4.54683e-05
-4.48001e-06
-1.66914e-05
6.70486e-05
0.000119669
-2.34878e-05
9.00031e-05
-1.47952e-05
-3.90527e-05
-6.21425e-06
-8.99173e-05
5.22718e-05
0.000157961
2.40975e-05
9.16879e-05
-2.49447e-05
0.000157724
9.09192e-05
-3.16906e-06
9.47255e-05
3.90384e-05
0.00013097
-2.58442e-07
-6.85493e-05
2.66288e-06
7.39994e-05
0.00013342
5.79278e-05
2.02989e-05
3.31156e-05
8.04213e-05
4.36596e-05
1.22659e-05
7.49693e-05
5.09605e-05
4.32277e-05
-3.98804e-05
-3.45634e-05
4.04447e-05
2.44896e-05
0.00011572
6.60872e-05
1.82549e-05
8.13094e-05
1.99645e-05
-1.88099e-05
0.000119796
9.26162e-05
-2.24507e-06
3.77484e-05
2.0324e-05
6.79668e-06
4.46094e-05
-3.1916e-05
4.68969e-05
-1.15028e-05
-4.98415e-05
2.32954e-05
2.09623e-05
0.000160761
9.88224e-05
2.06404e-06
0.000137836
1.15242e-05
-3.11239e-05
0.000132418
1.7827e-05
2.91315e-05
0.000108428
-8.34535e-06
3.45046e-05
4.32305e-05
5.74626e-06
3.42713e-05
-5.27618e-06
1.75424e-05
7.67778e-05
2.50088e-05
0.000112709
-2.20696e-05
3.25852e-05
2.55228e-05
5.84617e-05
-6.12724e-05
0.000105448
0.000137295
2.50294e-05
4.32234e-05
7.45821e-05
0.000111579
-2.0268e-05
-8.13347e-06
8.72926e-05
-8.23224e-05
1.15578e-05
3.31806e-05
8.87691e-05
-7.05994e-05
-3.18112e-05
5.65336e-06
1.04993e-05
7.98529e-05
4.14198e-05
7.20923e-05
0.000102554
7.46859e-05
2.48839e-05
0.000198125
8.16125e-05
-6.56997e-05
6.24198e-05
0.000201229
4.75225e-05
8.32755e-05
7.86671e-05
-1.63089e-05
5.95989e-05
0.00014917
4.39015e-05
3.83353e-05
-1.00755e-05
6.97708e-05
-5.98879e-05
5.34239e-05
6.86798e-05
8.5791e-05
6.81027e-05
0.00013744
0.000106097
-2.40521e-05
0.000111081
-0.000131281
0.000102691
9.90944e-05
-5.28727e-05
-3.79208e-05
8.69746e-05
0.000114877
0.000176992
3.40521e-05
7.95295e-05
5.67443e-05
-3.69139e-05
-1.514e-05
8.69037e-05
6.86067e-05
6.22857e-06
4.16544e-05
2.36379e-05
2.60698e-05
0.000121307
-3.55702e-05
-2.05771e-05
2.75009e-05
5.94511e-05
8.97958e-06
1.84997e-05
8.66941e-05
-5.82663e-05
-3.07104e-07
2.65903e-05
-1.44094e-05
-2.21957e-05
-3.95466e-05
0.000128655
-4.29596e-06
2.10484e-05
-3.85131e-05
0.000102293
2.14375e-05
2.40523e-05
4.18613e-05
-0.000104899
2.47043e-05
-6.30287e-05
-2.51193e-05
-2.38869e-05
5.12262e-05
-2.60444e-05
-7.57644e-05
4.98928e-05
-6.6046e-05
-4.29004e-05
2.3341e-05
-5.99083e-05
-8.02729e-05
3.00235e-06
-4.24264e-05
4.66267e-06
1.08914e-05
-2.15755e-05
-4.06057e-06
-5.82078e-05
-6.74935e-05
-0.000106138
-1.79203e-05
-2.00456e-05
-5.72719e-05
-2.52762e-05
7.72998e-06
-3.0741e-05
-8.53869e-05
-3.53889e-05
-8.36118e-06
2.74421e-05
-7.95682e-05
-6.67482e-05
2.31334e-05
-0.000103179
-3.37884e-05
1.98338e-05
-8.20332e-05
-5.15863e-05
-4.38412e-05
8.67283e-06
3.56002e-05
-2.47128e-05
4.87431e-06
-0.000112385
-3.15171e-05
3.88795e-05
-3.39418e-05
-6.56133e-05
-4.11929e-05
-3.17377e-05
2.98233e-05
-2.85316e-05
-3.54568e-05
-2.34861e-05
-0.00011611
1.48101e-05
-3.37933e-05
4.56305e-05
-5.12687e-05
-5.72852e-05
-3.73459e-05
-3.01481e-05
-6.05669e-05
-1.00288e-05
-7.9634e-05
-0.000109192
1.21045e-05
-4.39815e-05
9.0173e-06
-1.84359e-05
1.72418e-05
-5.13537e-05
-1.04336e-05
4.76098e-05
-2.54945e-05
5.74091e-05
2.1595e-07
-3.24125e-05
-5.04439e-05
-8.2256e-05
2.84831e-05
2.44663e-05
-6.16949e-05
-0.000158637
-4.16982e-05
-6.51926e-08
-1.69136e-05
8.77352e-06
5.33131e-05
3.15602e-06
-1.07941e-05
2.47143e-05
-5.96547e-06
3.43232e-05
-2.7312e-05
-6.8472e-06
-1.89466e-06
-4.36435e-05
-0.000106618
-3.96516e-05
-2.96774e-05
-3.55601e-05
1.64219e-05
-5.91245e-05
-4.27184e-05
-1.06706e-06
-6.00005e-06
5.43527e-05
-3.54244e-05
-7.13798e-05
-7.13191e-05
4.01702e-05
1.15472e-05
-5.23516e-05
-1.11543e-05
9.64524e-06
3.18988e-05
-8.57752e-05
1.39618e-05
-6.13795e-05
-7.74127e-06
-3.48629e-05
-1.67093e-05
-4.55661e-05
-6.96029e-05
1.70253e-05
-4.88106e-05
-2.07968e-05
1.59817e-05
-1.05529e-05
-2.35449e-05
-1.24408e-05
-3.31046e-05
-4.60121e-05
-1.33576e-05
-4.22454e-05
-8.32276e-06
-5.94473e-05
-7.82579e-05
8.69727e-06
-2.01969e-06
-8.38253e-05
1.05491e-05
-3.22353e-05
-4.36762e-05
-0.000117681
-8.72498e-06
-3.99579e-05
-3.83073e-05
-7.16747e-05
9.3705e-06
3.00051e-05
-1.7041e-05
-2.39991e-05
-1.85589e-06
-5.11224e-05
-2.0256e-05
-8.13482e-05
-6.4095e-05
3.62427e-05
-8.02709e-05
-7.56374e-06
2.37459e-05
2.21164e-05
-5.27813e-05
-2.42563e-06
3.60699e-05
-9.4656e-05
1.02376e-05
-2.21479e-05
3.97032e-05
-4.13512e-05
-2.55483e-05
-5.70097e-06
3.04062e-05
-6.90697e-05
-4.77675e-05
3.67507e-05
-4.79643e-06
2.05904e-06
-4.86565e-05
-0.000107547
-6.60244e-05
-2.66004e-05
-2.24793e-05
-9.32987e-06
-1.88572e-05
-0.00010145
6.32263e-06
3.69595e-05
4.61051e-06
-1.08492e-05
-2.36545e-05
-8.50842e-05
-3.9091e-05
4.81097e-05
-6.97724e-06
-7.51882e-05
-6.46275e-05
-4.37894e-05
3.07558e-05
-5.53507e-05
1.83133e-06
-5.12168e-05
9.7167e-05
1.17981e-05
-4.14068e-05
-5.22414e-05
-4.8399e-05
-4.73994e-05
3.21254e-05
-3.50828e-05
-7.29868e-05
1.69803e-06
-2.53877e-05
-1.98889e-05
4.50597e-06
-1.73202e-05
7.05672e-05
5.70889e-05
-6.70664e-05
-3.48979e-05
-2.73385e-05
-7.02047e-05
-2.06066e-05
2.42679e-05
8.58861e-05
-8.70349e-05
6.93463e-06
-4.34528e-05
-3.62702e-05
6.90325e-05
3.75882e-05
-6.27586e-05
-4.99154e-06
2.55413e-05
-5.11216e-05
2.26246e-05
-1.3483e-05
-4.80211e-05
-1.98237e-05
3.05509e-06
3.73241e-05
3.42685e-05
-1.23486e-05
-2.31678e-05
-0.000132199
-1.66707e-07
-7.60634e-06
5.12578e-05
-7.35302e-06
-7.36322e-05
5.01727e-06
-3.30425e-05
-1.99128e-06
5.00254e-05
-7.79761e-06
-2.33895e-05
-8.47992e-06
1.05461e-06
-1.92297e-05
7.13235e-05
-5.15234e-05
7.82253e-06
3.11632e-05
6.53439e-05
-4.67909e-05
-2.90642e-05
-1.14909e-05
-2.49565e-05
-9.34282e-05
-2.04821e-05
3.51593e-05
4.88632e-05
3.6408e-05
-1.64527e-05
3.77696e-05
6.14577e-05
-4.75248e-05
4.48448e-05
4.40085e-05
9.82289e-06
-5.10868e-05
1.2307e-05
2.3444e-05
7.04302e-05
4.96684e-05
-3.57147e-05
2.25287e-05
5.27408e-06
-2.51163e-05
4.80091e-05
3.40397e-05
2.11631e-05
-2.89198e-05
-7.34258e-05
2.16751e-05
3.48734e-05
1.4212e-06
-4.63354e-05
1.81713e-06
-1.65716e-05
5.22444e-05
1.9271e-05
-4.25105e-05
-9.05949e-05
6.88422e-06
2.94284e-05
9.43267e-06
3.9076e-05
-4.01766e-05
2.79775e-05
-3.30702e-05
9.02759e-05
1.87055e-05
2.19352e-05
-2.38944e-05
3.89211e-05
7.9507e-05
-1.43005e-06
-1.07869e-05
-4.31227e-05
-5.6342e-05
3.65556e-05
5.6912e-06
-2.97658e-05
3.18496e-05
-3.75105e-05
-1.97685e-05
6.36959e-05
5.06416e-05
-4.80592e-05
-4.18772e-05
-9.31276e-06
-2.63555e-05
-1.33663e-05
5.09452e-05
7.41069e-05
-1.38809e-05
-5.5213e-05
-6.02391e-05
2.25469e-05
4.01651e-05
-3.56471e-05
4.60863e-05
6.04028e-05
1.0042e-05
-2.72855e-05
-6.8402e-05
1.03847e-05
-3.90667e-05
-6.67314e-05
1.89329e-05
-3.86648e-05
-7.26082e-05
1.55347e-05
3.44663e-05
-9.18156e-06
-2.52391e-05
3.49991e-05
6.7194e-05
-7.81473e-06
-2.34849e-05
1.90872e-05
-3.45567e-05
-3.24671e-06
3.17624e-05
-4.33623e-05
-4.44563e-05
-1.29165e-05
6.19076e-05
-1.54717e-05
-1.92425e-05
-9.33884e-07
1.07799e-05
-2.67862e-05
6.43285e-05
6.27711e-07
3.16112e-05
-3.45438e-05
-2.02105e-05
3.29812e-05
-8.92964e-06
-5.33776e-05
-6.58387e-05
-1.9774e-05
2.38349e-06
3.65473e-05
8.36735e-06
-1.87801e-06
1.48292e-05
-2.75739e-05
4.24773e-05
2.79528e-05
9.69106e-05
6.65836e-05
1.94263e-05
1.45666e-05
-1.36639e-05
5.90174e-05
5.77691e-05
-3.53305e-05
8.65557e-05
-1.88482e-05
-2.10225e-05
-5.39366e-05
1.12333e-05
-1.22986e-05
7.03161e-05
-1.07865e-05
6.14929e-06
5.7793e-05
3.47516e-05
-3.56395e-05
-5.85581e-06
4.38269e-05
2.9995e-05
1.48881e-05
3.09385e-06
-6.29965e-05
1.44143e-05
-9.34468e-05
4.10877e-05
-3.34167e-05
-7.29716e-05
6.78643e-06
-4.31378e-05
3.26063e-05
-5.40693e-05
-3.51887e-05
-7.38027e-06
-3.46785e-05
7.78155e-06
5.28591e-05
1.66987e-05
-1.61515e-06
7.61896e-05
-2.89618e-06
5.27897e-05
3.30994e-05
2.69053e-05
3.20114e-05
-4.14014e-05
-7.91211e-05
6.70424e-06
-3.71059e-05
3.38652e-07
3.12878e-05
2.55888e-05
4.62428e-05
-7.34499e-06
3.85577e-05
-1.82483e-05
8.60399e-05
-3.51757e-05
-2.4211e-05
-2.44786e-05
3.96882e-05
3.96362e-05
-5.59597e-06
-1.59817e-05
5.26487e-05
-3.12827e-05
-9.51276e-06
1.32088e-05
3.03079e-05
4.01438e-05
-6.21298e-05
6.55744e-06
-4.02802e-05
7.68165e-05
-2.30573e-05
2.42726e-06
-2.36238e-05
-7.6571e-06
1.05554e-06
-7.5846e-05
1.89058e-05
4.24925e-05
2.73343e-06
-4.68807e-05
-0.000111356
2.32969e-05
1.92826e-05
1.6694e-06
4.11414e-05
-1.26258e-05
3.11458e-06
-2.15392e-05
-7.41899e-05
3.57798e-05
1.81664e-05
-4.43209e-05
1.38062e-05
2.49417e-05
-1.40064e-05
-5.45265e-05
-1.59673e-05
4.84833e-05
-4.49957e-06
-0.000139602
5.79739e-05
3.08061e-05
0.000100899
-3.72753e-05
3.82717e-05
1.96726e-05
-2.19458e-05
-3.16994e-05
-3.15022e-05
5.7979e-05
8.84748e-05
-9.06736e-06
-5.99888e-05
9.21846e-06
8.46421e-06
-1.86265e-08
-2.07849e-05
-3.90375e-05
0.000130275
-3.43216e-05
-4.70515e-05
5.37115e-05
-2.79653e-06
2.82284e-06
-3.79188e-05
-6.05411e-05
4.75423e-05
4.84358e-05
-1.7537e-05
3.74634e-05
-5.19105e-05
4.18175e-05
3.39503e-05
-6.99733e-05
2.73657e-05
3.88062e-05
1.6781e-05
-5.26782e-05
6.28687e-05
-2.1963e-05
-4.31015e-05
-7.40332e-06
-2.66795e-05
4.25467e-05
3.65032e-06
2.75732e-05
-4.73879e-05
-6.43777e-06
3.03094e-05
-2.26304e-05
-8.19347e-05
-4.95822e-05
1.36239e-05
3.36369e-05
4.53528e-05
-3.78171e-05
6.72049e-05
-2.02053e-05
-6.23039e-05
4.74696e-05
4.6276e-05
1.24059e-05
3.82883e-05
2.15032e-05
5.87148e-05
-6.49997e-05
-4.25666e-05
-1.34119e-05
4.39063e-05
4.78702e-05
-2.23203e-05
-6.05178e-05
1.98314e-06
-2.43739e-06
-3.00116e-05
1.48918e-05
2.9205e-05
7.28872e-05
7.0664e-05
-3.58253e-05
-0.000140627
2.58461e-05
1.20327e-06
-2.88249e-05
-4.697e-05
5.72425e-05
3.12581e-05
1.75566e-05
-0.000107817
-1.58472e-05
1.13326e-05
3.99522e-05
3.28138e-05
-4.30106e-05
3.20361e-05
3.74882e-05
-3.91933e-05
2.83311e-05
3.7194e-05
-1.37142e-05
3.56371e-05
-5.44162e-05
8.30448e-05
3.03239e-05
-1.9427e-05
-2.67295e-05
6.84278e-05
4.1218e-05
-2.91597e-05
3.35349e-05
3.92133e-05
3.68368e-05
-3.48369e-05
-2.81513e-05
1.41669e-05
3.5295e-05
-7.15663e-05
-2.16153e-05
4.60054e-05
3.64991e-05
2.31855e-05
-3.12364e-05
-7.13485e-05
2.25479e-05
-3.52721e-05
7.69858e-05
-4.16432e-05
-1.37858e-05
7.45142e-05
-5.40671e-05
4.00422e-06
-1.77849e-05
-5.5805e-05
2.01229e-05
5.96e-06
5.05821e-05
6.31162e-05
-6.58249e-05
8.14192e-05
-4.3224e-05
-2.44339e-05
2.67201e-05
4.39445e-06
9.56806e-06
7.65512e-06
4.39084e-06
-4.22164e-05
2.17027e-05
1.01276e-05
-1.56355e-05
-7.88143e-05
-2.79715e-05
-7.33137e-06
2.62833e-05
6.22869e-06
2.38402e-05
-8.04104e-06
5.26159e-05
3.00964e-05
-3.07955e-05
-8.68589e-05
1.14741e-05
3.8733e-05
1.11605e-05
-2.85618e-05
-9.12487e-06
-2.48163e-06
2.21189e-05
-3.22971e-06
2.53443e-05
2.25464e-05
3.2097e-05
-2.08742e-05
-3.06312e-06
6.05569e-06
-3.41376e-06
3.49666e-05
-2.44873e-05
5.34741e-05
1.96625e-05
1.27886e-05
-1.15691e-05
2.92524e-05
2.8708e-06
3.39588e-05
-1.87166e-05
-2.88605e-06
-6.90412e-05
2.46686e-05
-5.03869e-06
-1.26841e-05
2.05981e-05
-2.63399e-05
-2.66149e-06
-3.02475e-05
-7.38938e-05
-1.16541e-05
0.000124287
-9.67183e-05
2.30556e-05
4.08882e-05
1.12082e-05
1.89696e-05
2.29748e-05
-6.50403e-05
-1.85565e-05
-3.58941e-05
9.88762e-06
-2.25086e-05
-0.00011462
5.06445e-05
-0.000120174
-5.2155e-05
0.000129995
-2.85544e-05
-3.29316e-05
1.39811e-05
-3.0878e-06
-4.58444e-06
-6.87173e-05
5.01517e-07
2.54058e-05
-3.06803e-05
-4.83696e-05
-2.09833e-05
3.77459e-05
3.9908e-05
1.09903e-05
-3.37757e-05
2.43068e-05
4.91925e-05
4.58611e-05
-7.1392e-05
-6.57423e-05
-4.48686e-05
5.1466e-05
2.45101e-06
-1.54634e-06
-6.96706e-05
3.42261e-07
-1.04236e-05
6.89412e-06
-2.2904e-05
-2.35543e-06
-3.06221e-05
3.27411e-05
-3.22645e-06
-1.03366e-05
-2.52569e-05
2.84626e-05
9.52234e-05
-3.02617e-05
3.21709e-05
4.43817e-05
-4.54087e-05
-0.000101101
-3.30771e-05
0.00011101
6.2544e-05
-5.28279e-05
-0.000107186
-1.18129e-05
6.8567e-05
3.46117e-05
-5.40467e-05
-5.2138e-05
4.75179e-05
-4.06371e-05
-0.000119436
6.12028e-05
-1.81564e-05
-3.11732e-05
0.000105494
-4.54735e-05
-9.29439e-05
-5.38457e-05
9.50519e-06
-5.54991e-05
1.67227e-05
4.28129e-06
-7.23695e-05
6.5245e-06
4.59248e-05
6.77735e-06
-2.06684e-06
5.32221e-05
2.83384e-05
-3.75982e-05
-4.85512e-05
0.000104193
-1.62814e-05
-5.72787e-06
-2.96995e-05
-2.67266e-06
-4.58119e-05
8.22777e-06
-1.31114e-05
-4.38883e-05
-3.36713e-05
-5.49548e-05
4.80604e-05
-3.43903e-05
5.50933e-05
-3.26772e-05
-2.4994e-05
-9.60904e-06
3.26964e-05
-4.34383e-05
8.21743e-05
3.99025e-06
1.01074e-05
-2.64167e-05
-1.68476e-06
5.18317e-05
-5.05239e-05
7.65342e-05
-2.69967e-05
-2.84479e-05
5.25324e-06
1.91289e-05
5.75269e-05
-1.5507e-05
1.41477e-05
1.54794e-05
9.67544e-05
-2.60591e-05
2.79746e-06
-6.86485e-05
-4.36441e-06
5.35534e-06
-6.22589e-07
-1.12273e-05
2.76117e-05
-7.06452e-05
2.38859e-05
3.64638e-05
-5.86093e-06
-1.4732e-05
5.85357e-05
-1.46427e-06
5.05708e-07
-8.36386e-06
-6.68819e-05
-7.4585e-06
-5.66776e-05
5.49145e-05
-1.55681e-05
-6.51167e-05
1.93969e-05
-2.50089e-05
1.49549e-05
4.44493e-05
-8.87876e-06
-5.64918e-05
-7.07048e-05
-8.34092e-06
-2.96299e-05
-2.15252e-06
-1.83217e-05
-1.89338e-06
-0.000102778
8.74791e-06
3.24821e-05
3.07966e-05
-0.000103662
-3.6156e-05
2.02423e-05
8.39116e-05
4.75254e-06
-1.31457e-05
3.19692e-05
7.1479e-07
-3.71372e-05
-7.51379e-05
-6.92117e-05
-2.21271e-06
-7.09704e-05
1.36707e-06
-4.37517e-05
5.21014e-05
-3.20338e-05
-2.11226e-05
9.38214e-06
-1.06031e-06
4.85149e-06
-2.59301e-05
5.72981e-05
-2.03841e-05
4.02209e-05
1.71224e-05
-4.36116e-05
4.79096e-06
-4.09901e-05
-3.49013e-07
2.3094e-05
-3.31623e-05
1.34479e-05
1.23587e-05
-2.61036e-05
-4.63813e-05
1.17682e-05
-4.40202e-05
0.000100773
4.16168e-05
5.9576e-05
5.72659e-06
3.63542e-06
3.72173e-05
-2.83867e-05
-2.65322e-05
-3.87037e-05
-3.32439e-05
-2.94542e-06
-4.83473e-06
-7.42385e-05
-9.21178e-05
-4.12922e-05
9.3604e-05
1.79688e-05
2.46146e-05
5.07899e-05
-3.90923e-05
-4.86935e-05
-6.07772e-05
2.91871e-05
-7.01528e-05
2.3977e-05
5.71004e-05
1.43808e-05
-8.54449e-05
6.4892e-05
5.64125e-06
1.15006e-05
-0.000120716
5.3374e-05
7.36078e-05
5.39166e-06
1.38739e-05
1.18413e-05
-9.65095e-06
3.66957e-05
-3.03432e-05
4.71816e-05
6.17246e-05
-4.68106e-06
-4.04329e-05
-2.98404e-05
4.83426e-06
-1.19209e-06
4.36946e-05
-1.84891e-06
-1.13772e-05
-1.70609e-05
7.82479e-05
-4.58374e-06
1.7914e-05
-3.62853e-05
-7.78638e-05
7.38348e-05
-9.19309e-05
-5.20796e-06
2.09284e-05
2.3063e-06
7.05887e-05
3.83817e-05
7.42089e-06
5.50144e-05
-1.01451e-05
4.60939e-05
-1.68376e-05
-5.88745e-05
-4.91899e-05
5.14216e-05
5.45882e-05
-1.98534e-05
5.81011e-05
3.02009e-05
1.38805e-05
2.24964e-05
6.25567e-05
6.90145e-06
-8.80082e-05
-1.34255e-05
-5.00784e-06
4.87004e-05
5.9925e-05
6.30911e-05
1.42655e-06
2.1443e-05
-2.66376e-05
-9.90403e-06
-6.22043e-05
-1.60281e-05
3.2595e-05
-3.8536e-05
-1.90415e-05
5.31534e-05
-2.28166e-05
1.54097e-05
-4.23553e-05
-5.6508e-07
-5.11481e-05
-1.07911e-05
-0.000114607
2.06345e-05
1.91703e-05
7.28538e-05
2.73276e-05
-4.94908e-05
5.05785e-05
5.2787e-05
6.41996e-05
-7.9904e-06
4.43971e-05
-4.8651e-05
-2.58865e-05
-3.12889e-05
9.76647e-05
-4.46027e-05
-4.87098e-05
2.70449e-05
-5.04586e-05
1.36552e-05
-9.01835e-05
-0.000131355
6.04796e-05
5.67494e-05
-1.70094e-05
2.47732e-05
-9.10868e-06
5.16702e-05
-8.06586e-05
3.82913e-05
3.78339e-05
1.59069e-05
-7.97538e-06
-6.65558e-06
3.57419e-05
3.1377e-05
-9.32615e-05
-4.72954e-05
-9.38079e-05
-4.97694e-05
6.84748e-05
-3.54394e-05
9.14559e-06
-3.66226e-05
3.87212e-05
1.69345e-05
4.47608e-05
-5.40488e-05
2.94942e-05
6.61318e-05
1.22411e-05
-6.64289e-05
1.13342e-06
1.48169e-05
-1.36932e-05
6.08948e-05
-9.08854e-07
7.89305e-05
9.09681e-06
5.2616e-05
-9.66368e-05
3.41134e-05
6.60552e-06
-1.27824e-05
-4.43455e-05
-2.06705e-05
3.15055e-06
-9.30391e-07
-6.30612e-05
-0.000100799
-4.15873e-05
-9.15086e-05
-4.81866e-05
5.62924e-05
-1.52456e-05
-5.22907e-05
-2.41201e-05
-1.08294e-05
-4.57689e-05
-4.23094e-05
1.19057e-05
2.83612e-05
-1.41363e-05
-5.28244e-05
-6.13481e-05
1.77321e-05
1.07328e-05
-2.08275e-05
5.96306e-05
1.79058e-06
2.51203e-05
-2.36353e-05
5.88673e-05
3.18956e-05
4.76111e-05
-7.31895e-05
7.22461e-05
-0.000100922
-6.24056e-06
6.49317e-05
8.48877e-06
3.23065e-05
-3.30678e-06
-4.32204e-05
2.37837e-06
1.99968e-05
-1.27291e-05
9.59355e-06
3.61402e-05
2.75427e-05
6.92136e-05
-2.72423e-06
-6.32239e-05
-6.14591e-06
-7.61065e-06
-1.02115e-05
4.45031e-05
5.20062e-06
2.67309e-05
-6.63009e-06
-4.79887e-06
-2.94803e-05
1.43551e-05
5.69003e-06
6.79195e-05
9.01206e-06
3.43912e-05
1.84248e-05
1.29046e-05
-4.46516e-05
3.45934e-05
3.3654e-05
1.93843e-06
-1.88095e-05
4.46872e-05
-5.23892e-05
6.75365e-05
7.74651e-05
6.37211e-06
8.13846e-05
-3.18106e-05
2.20668e-05
-1.73564e-05
-2.87808e-05
-6.86578e-05
1.19237e-05
2.4791e-05
1.23699e-05
-3.48676e-05
2.16784e-05
-2.20754e-05
-3.52552e-06
1.23348e-05
1.70944e-06
2.97126e-05
-6.88564e-05
-1.33736e-05
9.18959e-05
-3.4351e-05
1.47276e-05
-1.23638e-05
4.94565e-05
2.42067e-05
-4.44687e-05
5.05934e-05
0.000106778
9.66933e-05
6.52507e-05
8.90344e-07
-7.20657e-06
-1.1456e-05
6.66913e-05
-5.448e-06
4.01796e-05
-2.3398e-05
4.17558e-05
-3.41277e-05
-2.13973e-05
6.28084e-06
-2.62642e-05
3.5821e-05
-8.93137e-05
4.69465e-05
-3.57558e-05
3.30253e-05
2.34644e-05
-9.97118e-05
2.21343e-05
3.57018e-05
-1.87461e-05
2.13261e-05
-6.78233e-05
2.7162e-05
-5.16977e-05
5.68149e-05
4.8844e-05
-1.74805e-05
3.80415e-05
4.54166e-05
1.17877e-05
-8.38027e-06
2.07492e-05
-2.05643e-05
5.28257e-05
-7.5706e-05
-4.26269e-05
-7.67317e-06
2.04985e-05
-1.54355e-05
-3.1233e-05
1.17401e-05
6.2165e-05
4.88078e-05
4.33601e-06
-0.000127571
-5.02241e-05
-6.86676e-05
-6.60996e-05
3.09133e-05
7.6151e-05
-7.01357e-05
-7.02986e-06
9.28482e-06
4.82402e-05
3.83984e-06
8.47341e-06
-6.75763e-05
-1.85827e-05
1.21732e-05
-8.6677e-06
-3.1952e-05
-1.42837e-05
3.18396e-06
7.33091e-06
1.82409e-05
2.56517e-05
-6.78841e-05
-4.71482e-06
3.49289e-05
-5.05336e-05
1.07941e-05
-1.50143e-05
-1.63045e-05
-2.95392e-05
9.53891e-05
2.63902e-05
-1.76689e-05
-2.15016e-05
-1.27995e-05
8.03312e-06
-1.35807e-05
2.63907e-05
-7.1855e-06
-1.90844e-05
2.17279e-05
5.39327e-05
-9.03432e-05
5.79038e-05
-1.4478e-05
-1.46056e-05
-3.83228e-05
-4.54389e-05
2.61624e-05
5.74818e-05
2.07163e-05
1.80588e-05
2.61938e-05
-7.22148e-06
-2.65967e-05
2.38708e-05
-3.81791e-05
-3.29993e-05
2.86613e-05
4.19584e-06
5.34143e-05
-1.29021e-05
-4.5459e-06
9.10491e-05
1.63324e-05
1.69144e-05
-4.63275e-05
3.55742e-05
-3.91721e-05
2.29459e-05
1.72229e-05
3.08675e-06
6.80585e-05
6.72807e-05
-1.70234e-05
-7.54674e-06
4.5587e-05
-1.23878e-05
-6.61262e-06
0.000122596
3.26281e-05
1.82125e-05
2.49494e-05
-5.22537e-05
-2.22393e-05
-5.70167e-05
1.30467e-06
7.69016e-06
2.41783e-05
1.07717e-05
-5.20685e-05
1.76704e-05
6.44929e-05
-6.11887e-05
5.44068e-05
-4.49317e-05
-7.05202e-05
6.23125e-06
3.27919e-05
4.70874e-05
1.3276e-06
1.32956e-05
-7.78595e-05
-2.81832e-05
-6.89272e-06
0.000112601
3.68478e-05
-3.34259e-05
4.85627e-05
3.18345e-05
1.14889e-05
6.94898e-05
0.00013327
-7.38588e-05
-4.20369e-05
-1.6897e-05
2.04113e-05
8.13243e-06
-1.95546e-05
3.47546e-05
5.05918e-05
-6.30396e-05
-4.2269e-05
1.79625e-05
5.70345e-05
-6.66827e-07
2.83981e-05
-3.478e-05
-8.23165e-05
-3.16934e-05
-5.51024e-05
-1.69486e-05
6.43992e-05
-5.57767e-05
5.25207e-05
-0.00011234
-7.1065e-05
-1.5224e-05
-1.6027e-05
-3.59302e-05
5.28321e-05
4.40279e-05
-4.75463e-06
-6.05778e-05
-2.03253e-05
1.72124e-05
2.40906e-05
-2.15002e-05
-3.80278e-05
1.8421e-05
-5.2297e-05
-1.48038e-05
-9.04268e-05
-1.86132e-05
-1.40985e-05
0.000121308
-2.54703e-05
5.25201e-05
3.79478e-05
3.11936e-05
-3.85306e-05
-5.1026e-06
-4.49666e-05
2.62947e-05
1.12428e-05
-1.86056e-05
1.74431e-05
-3.76209e-05
8.71136e-06
-3.17954e-05
7.14654e-05
-7.47016e-05
0.000101809
5.19643e-05
3.18052e-05
1.94152e-05
4.63661e-05
-3.00456e-06
1.62402e-05
7.99992e-05
3.6764e-06
-1.37992e-05
-5.21084e-05
-5.62188e-05
2.68226e-05
-3.78023e-05
-4.78228e-05
2.8863e-05
-2.68992e-05
-1.16546e-05
-5.02799e-05
3.10764e-05
-2.00592e-05
3.8109e-05
-8.71742e-05
-4.69045e-05
1.67191e-05
4.92433e-05
9.12731e-06
1.42655e-06
-6.6942e-05
-7.27305e-05
-1.43615e-05
-9.74478e-06
-1.56978e-05
2.67376e-05
-9.21222e-05
-5.88647e-05
-1.2588e-05
5.10605e-05
-8.97486e-05
7.86015e-05
1.30893e-05
1.51681e-05
-0.000114672
-4.19717e-05
1.06478e-05
8.84153e-05
-6.75279e-06
-6.93067e-06
1.08082e-05
-9.15196e-05
-1.49584e-05
1.07785e-05
5.18085e-05
-3.28288e-05
4.25936e-05
9.43046e-06
7.85338e-07
4.03607e-05
-3.83484e-06
2.66723e-05
-2.21871e-05
6.1118e-07
2.16439e-06
1.83095e-05
-2.01635e-05
-7.52348e-05
-8.20158e-05
-4.08833e-05
3.06881e-05
3.11445e-05
-1.76033e-05
-1.14897e-05
3.875e-05
9.27481e-06
1.17534e-05
-4.44875e-05
-5.27485e-05
-4.26524e-05
9.60723e-05
-3.91062e-05
-6.17562e-05
-4.51251e-05
4.72018e-06
-4.15775e-05
-1.74763e-06
2.57662e-05
4.81141e-05
-3.50768e-05
2.89144e-05
3.42635e-05
2.19487e-05
-2.03147e-05
-2.84294e-05
2.95846e-05
6.23253e-05
1.81494e-05
-1.77096e-05
-4.22896e-05
-3.51795e-06
6.32221e-05
3.54671e-06
7.63172e-06
-5.29399e-06
1.01698e-05
2.74982e-05
2.91362e-05
-2.60759e-05
-5.97398e-05
8.67881e-05
3.29316e-05
-1.45725e-05
-1.42368e-05
5.72904e-05
3.84334e-06
9.8189e-05
0.000121367
-2.85936e-05
2.49981e-05
7.87247e-06
-1.86716e-05
-1.70156e-05
-7.32371e-05
0.00011208
-1.25974e-05
-6.01779e-05
7.86246e-06
3.08844e-05
9.78366e-06
7.84092e-06
1.71365e-05
4.93601e-08
-2.67224e-05
-2.56812e-05
-4.13361e-05
-4.55831e-05
-1.76247e-05
-7.76607e-06
-4.82691e-05
7.13975e-05
1.64243e-05
3.01738e-05
-3.19602e-05
1.39844e-05
-1.39405e-05
-1.55885e-05
4.4764e-06
-1.6586e-05
8.27657e-05
5.56019e-05
5.67269e-06
3.54117e-05
2.86242e-06
-1.63056e-05
2.07491e-05
9.6322e-06
-1.45012e-05
-4.8888e-05
-4.0748e-05
-9.69216e-06
4.12578e-05
-2.15803e-05
-3.4153e-05
5.64967e-05
-1.37317e-05
-5.04198e-05
3.84748e-05
-2.33625e-05
-1.19593e-06
-5.94475e-05
5.95301e-06
6.40072e-05
-7.39724e-05
-2.23714e-05
-4.28897e-06
-7.43163e-05
-1.58099e-05
5.60062e-05
-2.41017e-05
5.20142e-05
4.58725e-05
-3.16424e-05
0.000122277
2.89968e-05
1.20708e-05
-2.74091e-05
-3.44679e-05
-3.20198e-05
5.98462e-05
4.27903e-05
-2.5427e-05
-1.62856e-05
4.25265e-05
4.55983e-05
-7.0805e-05
-4.53842e-05
-1.75916e-05
6.00133e-05
3.70811e-05
4.36977e-05
-7.64523e-06
2.17553e-05
1.48432e-05
1.47808e-05
3.49523e-05
1.44989e-05
-7.17351e-05
5.90801e-05
3.93528e-05
-1.6212e-05
4.74531e-05
-1.84563e-05
-3.8423e-05
8.46093e-05
5.78983e-05
5.29935e-05
-2.82952e-05
-1.40263e-05
-3.38187e-06
6.56869e-05
1.70163e-05
1.81665e-05
-1.45182e-05
-3.22156e-05
8.30204e-06
5.70647e-05
3.72082e-05
6.89621e-05
3.92863e-05
3.07863e-05
-1.59349e-05
4.17496e-05
8.47329e-06
-3.21824e-05
-1.07554e-05
-1.45923e-05
5.39322e-05
1.21889e-05
2.11233e-05
-2.64748e-05
1.12987e-05
-2.39081e-05
-1.44506e-05
1.09987e-05
-7.7351e-06
4.69049e-06
1.68594e-05
6.67059e-05
1.5799e-05
-0.00010758
-8.24992e-05
6.5231e-06
-5.85071e-05
5.17325e-05
1.84868e-05
1.66772e-05
-7.07681e-05
5.68549e-06
-1.86223e-05
-4.33436e-05
5.8328e-05
-4.15356e-05
-7.7674e-05
-1.33216e-05
-3.74747e-05
-1.09931e-06
5.06308e-05
3.43446e-05
5.21395e-05
2.95315e-05
4.71442e-05
-2.02371e-05
0.000134813
5.51658e-05
-3.8271e-05
-1.12217e-05
0.000111733
1.12818e-06
-1.38334e-05
-2.07329e-05
-1.05335e-05
5.75138e-06
2.51085e-05
-6.47183e-05
1.22259e-06
0.000118249
2.02319e-05
-6.96785e-05
-8.34578e-05
9.06892e-05
4.29543e-05
-6.09938e-05
-2.33622e-06
4.52402e-06
-2.48624e-05
-7.49838e-05
-6.3011e-06
3.39795e-05
6.28866e-05
-2.65881e-06
-2.97545e-05
-6.67728e-05
-1.08312e-05
7.42311e-06
3.0318e-05
-1.26914e-05
1.26475e-05
-3.24746e-05
-1.54035e-05
4.65958e-05
-6.06291e-07
-7.3323e-05
-3.61169e-05
3.19344e-05
5.0712e-05
5.52051e-05
-3.86611e-05
-2.71013e-05
-1.73203e-06
4.00433e-05
-1.28828e-05
1.1524e-05
2.75385e-05
1.51005e-05
2.02366e-05
3.2782e-05
-0.000103584
-2.37204e-05
5.62991e-05
-3.56047e-05
-8.56421e-05
0.000101618
-2.90698e-05
2.15789e-05
-5.1951e-05
6.29306e-06
-5.95585e-05
3.80201e-06
-4.0116e-05
2.21787e-05
-9.73779e-06
6.35827e-05
-2.76127e-05
-2.54392e-05
9.06728e-05
-5.55888e-05
-3.51445e-05
1.47807e-05
-2.3094e-05
3.46855e-05
-4.10147e-05
-1.09316e-05
2.98411e-05
3.45648e-05
-4.7846e-05
-5.7874e-05
-3.7299e-05
3.58615e-05
-1.02358e-05
-1.76758e-05
3.83471e-05
4.55067e-06
-3.07256e-05
-6.31751e-05
6.19085e-06
-5.68879e-05
0.000120349
-0.000117729
-6.80869e-05
1.01877e-05
-1.02159e-05
2.82164e-05
-1.9602e-05
-6.25569e-06
3.50748e-05
9.93162e-06
-5.96483e-05
5.40575e-05
-2.9758e-05
-7.26315e-07
-9.39053e-06
-2.64798e-05
5.89009e-05
9.35843e-05
7.95011e-05
-1.68923e-05
-6.82933e-05
-7.77036e-05
4.75618e-05
-1.31736e-06
1.17447e-05
5.16309e-05
-6.31507e-05
2.21427e-05
3.45722e-05
-3.89622e-05
4.9273e-05
9.85363e-06
-2.7369e-05
-7.1801e-05
-2.20747e-06
9.41241e-06
5.68603e-05
-2.01399e-05
-8.62218e-06
7.08969e-06
9.574e-07
-2.91978e-05
-3.67721e-05
9.86503e-07
-7.08294e-06
-7.77073e-05
4.07125e-05
2.2804e-05
-2.33531e-05
-2.8273e-05
6.35581e-06
-3.10616e-05
-2.37785e-05
5.87654e-05
3.77756e-05
-8.88549e-05
1.8874e-05
2.82156e-05
2.42069e-05
-1.97263e-05
3.13715e-05
2.67727e-05
-2.78919e-05
-1.14416e-05
4.39796e-05
-1.84721e-05
6.28992e-06
-9.41637e-06
3.67077e-05
-1.65383e-05
-2.21904e-05
-3.26342e-05
2.11538e-05
-9.05292e-05
-2.25273e-05
7.17829e-06
-1.67803e-05
-5.12955e-05
-4.15266e-05
3.02575e-05
1.87579e-05
1.34516e-05
6.79976e-05
0.000103678
-2.68699e-05
-5.62214e-05
-7.36862e-06
-8.72929e-06
-8.22102e-06
-0.000119192
3.07658e-05
9.97083e-05
7.93552e-05
2.35237e-05
2.89548e-06
3.2356e-05
6.61903e-06
-1.27403e-05
-1.12369e-05
3.50201e-06
6.08948e-05
-6.73428e-06
5.99329e-05
-9.10833e-06
-4.93438e-05
-1.2501e-05
-1.7921e-05
3.4178e-05
-3.37979e-05
7.39575e-06
5.9454e-05
0.000102923
1.58969e-05
2.07359e-06
6.6084e-05
-5.49529e-05
-6.42202e-05
4.83624e-06
5.86053e-05
-3.53623e-05
-0.000113618
-3.21865e-05
8.25233e-06
3.03729e-05
4.09468e-06
1.25875e-05
-2.57904e-05
4.03041e-06
-1.99422e-05
-0.000115459
-8.30321e-06
2.34321e-05
1.67679e-05
-9.89949e-06
-1.77937e-05
3.41062e-05
5.38377e-05
-8.89413e-07
-3.26859e-05
-1.44831e-05
1.08392e-05
2.86296e-05
1.41957e-05
-1.1321e-05
4.36336e-05
-9.69984e-06
4.36597e-05
-6.26082e-06
-6.49596e-05
8.33401e-05
7.37386e-06
-2.33594e-05
-5.29961e-05
8.21892e-06
-7.67078e-05
-5.47339e-05
1.6999e-05
-2.35287e-05
6.93036e-05
-5.89245e-05
-1.58967e-05
-3.797e-06
-4.36555e-05
1.75042e-06
6.90832e-06
-1.56341e-05
-1.2681e-05
-6.31344e-06
-2.87473e-05
6.35837e-05
-1.27361e-05
2.9887e-05
-1.94589e-05
0.00010666
-6.8732e-05
2.64286e-06
7.97828e-05
-7.28988e-05
-2.11626e-05
-1.829e-06
-5.65476e-06
-3.07189e-05
-1.66241e-07
6.13098e-05
-4.53605e-05
-3.93693e-06
2.74234e-05
5.10013e-05
6.30214e-06
2.15229e-05
-5.9315e-05
-4.52383e-05
-4.56914e-05
-4.39743e-05
-2.38916e-05
-5.03428e-05
-2.24266e-05
-6.28909e-05
1.11947e-05
0.000117078
1.08845e-05
1.6035e-06
7.116e-06
-1.24834e-05
-9.79602e-05
1.17279e-05
-2.43352e-05
-6.52869e-05
-4.5734e-05
9.77498e-05
-2.84504e-05
2.46848e-05
2.8971e-05
-3.39517e-05
9.19256e-05
-5.06383e-05
-3.13993e-05
4.17698e-07
2.26257e-05
5.23941e-05
-4.63508e-05
3.019e-06
-7.25876e-05
3.62424e-05
4.53801e-05
5.10276e-05
4.96124e-05
1.14626e-05
6.3146e-06
1.38574e-05
1.41491e-06
1.35629e-05
-5.94296e-05
-5.26095e-05
-3.14448e-05
3.68987e-05
-1.13074e-06
4.3941e-06
1.65976e-05
1.01099e-05
-4.56737e-05
-5.67073e-05
-2.16059e-05
3.75346e-06
3.02102e-05
2.47173e-05
-3.70551e-05
-4.68161e-05
-8.03268e-05
-3.89204e-05
8.46452e-05
4.35193e-05
1.98976e-05
-8.17562e-06
-6.95768e-06
-5.38763e-05
3.58442e-05
-6.18515e-05
7.9043e-05
-1.59485e-05
-3.99174e-05
-6.26172e-05
3.51223e-05
5.15336e-05
1.97068e-06
-3.47092e-06
-9.94967e-06
5.45726e-05
-4.35939e-05
-3.20034e-05
3.58507e-05
-2.33699e-05
-7.19354e-06
3.16269e-05
-2.36785e-05
4.79084e-05
6.11595e-05
-1.50187e-05
5.83362e-05
-1.60113e-05
-5.55505e-05
-4.11175e-05
3.92953e-05
8.73668e-05
-9.01835e-06
2.39066e-05
5.31233e-05
-2.11806e-06
3.75923e-05
-6.11139e-05
-5.37824e-05
4.75651e-05
-2.97434e-05
-7.41599e-05
-1.30143e-05
3.8289e-06
-4.95901e-05
-1.00633e-05
1.48058e-05
3.36766e-06
-4.77554e-05
-3.26615e-05
4.78001e-06
4.40958e-05
4.04309e-05
-4.65779e-05
-4.65793e-05
9.95409e-06
6.58097e-05
1.77752e-05
-1.76018e-05
-0.000102062
4.74707e-05
-2.0167e-05
-7.77573e-06
-8.79937e-06
4.50334e-05
-5.59178e-06
-5.70051e-05
-1.93111e-05
-3.39665e-05
4.75904e-05
2.16513e-05
-2.22097e-05
-2.47785e-05
-2.54153e-05
-5.89038e-06
-1.15653e-05
-4.13184e-05
-4.02359e-05
1.20606e-06
-4.48262e-05
2.04252e-05
3.3807e-06
-2.82911e-05
3.01644e-05
9.34862e-06
-6.71301e-05
-4.05745e-05
7.09336e-05
-3.39554e-05
-2.67511e-05
2.1774e-05
1.56353e-05
1.44393e-05
-8.90158e-06
-1.19942e-05
1.44322e-05
8.70278e-05
-9.6974e-07
1.24229e-05
-5.5928e-05
-1.92779e-05
3.90812e-05
3.06976e-06
-4.05499e-05
7.56583e-06
6.72848e-05
3.94989e-05
-7.47544e-05
-3.48643e-05
2.46887e-05
-5.16149e-05
3.76708e-06
-4.08547e-05
-1.83186e-05
8.32838e-05
-3.53504e-05
-3.56368e-05
-9.10193e-06
-2.37038e-05
-7.6158e-05
-4.31733e-05
-3.44526e-05
3.0332e-05
-5.93205e-05
-4.43417e-05
-1.38482e-05
2.80144e-05
4.43452e-05
7.11216e-06
-4.18746e-07
-3.37957e-05
5.63175e-05
4.62113e-05
-7.51623e-05
0.000106831
-4.8546e-05
-1.38163e-05
-8.4145e-07