# vtk DataFile Version 1.0
Net Charge Density
ASCII
DATASET STRUCTURED_POINTS
DIMENSIONS 256 128 1
ORIGIN 0 0 0
SPACING 0.15625 0.15625 1
POINT_DATA 32768
SCALARS rhonet float
LOOKUP_TABLE default
-3.89619e-06
-9.51276e-05
0.000144792
9.6322e-05
3.56842e-05
0.000120451
-0.000118445
9.18581e-05
0.000154216
2.28997e-05
-3.75604e-05
0.000108726
0.000103821
7.94454e-05
0.000109347
4.99605e-05
8.77434e-05
0.000140236
4.05877e-05
-6.79101e-05
-6.40715e-06
0.000141859
0.000144767
4.77827e-05
3.72682e-05
2.07431e-05
7.74221e-05
9.05889e-05
-1.3522e-05
-7.27428e-05
5.23023e-05
3.97236e-05
4.36692e-05
6.90087e-05
1.24417e-05
0.000171713
1.68073e-05
7.28727e-05
7.73575e-05
-5.53112e-06
2.29321e-05
6.83195e-06
0.000136404
9.39814e-05
2.09387e-05
1.86827e-05
-3.16134e-05
6.95547e-05
0.000116213
7.8872e-05
-1.20078e-05
2.49784e-05
8.34423e-05
0.000148995
3.55957e-05
1.75037e-05
0.000151011
-5.17473e-05
5.67862e-06
7.16952e-05
5.02798e-05
6.06017e-05
7.16804e-06
8.01802e-05
8.22491e-05
-8.03835e-05
4.41824e-05
0.000136175
4.09954e-05
4.82834e-05
7.9234e-05
3.6711e-05
-2.69159e-05
4.96672e-05
-1.15018e-07
5.11555e-05
4.20859e-05
-3.83083e-05
9.21623e-05
0.000106615
8.71844e-05
2.54082e-05
7.49611e-05
0.000101106
4.54684e-05
-4.47966e-06
-1.66913e-05
6.70488e-05
0.000119669
-2.34881e-05
9.00028e-05
-1.47957e-05
-3.90529e-05
-6.21448e-06
-8.99177e-05
5.22719e-05
0.000157961
2.40975e-05
9.16882e-05
-2.49448e-05
0.000157723
9.09186e-05
-3.16964e-06
9.47258e-05
3.9038e-05
0.00013097
-2.58209e-07
-6.85496e-05
2.66242e-06
7.4e-05
0.00013342
5.79281e-05
2.02986e-05
3.31156e-05
8.04213e-05
4.36595e-05
1.22658e-05
7.49688e-05
5.09602e-05
4.32276e-05
-3.98802e-05
-3.45634e-05
4.04445e-05
2.44899e-05
0.00011572
6.60872e-05
1.82549e-05
8.13099e-05
1.99643e-05
-1.88102e-05
0.000119796
9.26163e-05
-2.24402e-06
3.77488e-05
2.03238e-05
6.79691e-06
4.46093e-05
-3.19163e-05
4.68969e-05
-1.15023e-05
-4.98402e-05
2.32954e-05
2.09623e-05
0.000160761
9.88226e-05
2.06381e-06
0.000137836
1.15241e-05
-3.1124e-05
0.000132418
1.78274e-05
2.91313e-05
0.000108428
-8.34558e-06
3.45043e-05
4.32307e-05
5.74673e-06
3.4271e-05
-5.27676e-06
1.75425e-05
7.67778e-05
2.50086e-05
0.000112709
-2.20696e-05
3.2585e-05
2.55231e-05
5.84617e-05
-6.12719e-05
0.000105448
0.000137295
2.50293e-05
4.32238e-05
7.45821e-05
0.000111578
-2.0268e-05
-8.13324e-06
8.72931e-05
-8.23224e-05
1.15578e-05
3.31808e-05
8.87691e-05
-7.06002e-05
-3.18107e-05
5.65336e-06
1.04991e-05
7.98537e-05
4.14201e-05
7.20924e-05
0.000102554
7.46859e-05
2.48842e-05
0.000198126
8.16125e-05
-6.56991e-05
6.24197e-05
0.000201229
4.75226e-05
8.32756e-05
7.86673e-05
-1.63086e-05
5.95991e-05
0.00014917
4.39015e-05
3.83354e-05
-1.0076e-05
6.97707e-05
-5.98875e-05
5.34232e-05
6.86806e-05
8.57906e-05
6.81025e-05
0.000137439
0.000106096
-2.40527e-05
0.000111081
-0.000131281
0.000102691
9.90948e-05
-5.28726e-05
-3.79208e-05
8.69741e-05
0.000114877
0.000176992
3.40523e-05
7.95298e-05
5.67448e-05
-3.69138e-05
-1.51402e-05
8.69029e-05
6.86067e-05
6.2288e-06
4.16543e-05
2.36374e-05
2.60697e-05
0.000121308
-3.55704e-05
-2.05772e-05
2.75003e-05
5.94516e-05
8.97958e-06
1.84993e-05
8.66939e-05
-5.82662e-05
-3.07104e-07
2.65901e-05
-1.44097e-05
-2.21964e-05
-3.95468e-05
0.000128655
-4.29654e-06
2.10484e-05
-3.85132e-05
0.000102294
2.14381e-05
2.40529e-05
4.18614e-05
-0.0001049
2.47048e-05
-6.30288e-05
-2.51199e-05
-2.38867e-05
5.1226e-05
-2.60444e-05
-7.57643e-05
4.98934e-05
-6.60463e-05
-4.29003e-05
2.33413e-05
-5.9908e-05
-8.02729e-05
3.00212e-06
-4.24267e-05
4.66232e-06
1.08917e-05
-2.1575e-05
-4.06057e-06
-5.82074e-05
-6.74938e-05
-0.000106138
-1.792e-05
-2.00463e-05
-5.72719e-05
-2.52756e-05
7.73033e-06
-3.07414e-05
-8.53871e-05
-3.53893e-05
-8.36141e-06
2.74417e-05
-7.95682e-05
-6.67484e-05
2.31331e-05
-0.000103178
-3.37884e-05
1.98334e-05
-8.20333e-05
-5.15865e-05
-4.38412e-05
8.67294e-06
3.55998e-05
-2.47124e-05
4.87431e-06
-0.000112384
-3.15171e-05
3.88796e-05
-3.39416e-05
-6.56133e-05
-4.11927e-05
-3.17375e-05
2.98234e-05
-2.85322e-05
-3.54568e-05
-2.34864e-05
-0.00011611
1.48104e-05
-3.37929e-05
4.56306e-05
-5.12686e-05
-5.72848e-05
-3.73456e-05
-3.01474e-05
-6.05667e-05
-1.00287e-05
-7.9634e-05
-0.000109192
1.21046e-05
-4.39815e-05
9.01788e-06
-1.84354e-05
1.72419e-05
-5.13536e-05
-1.04336e-05
4.76097e-05
-2.54943e-05
5.74088e-05
2.163e-07
-3.24121e-05
-5.04449e-05
-8.22555e-05
2.8483e-05
2.44657e-05
-6.16946e-05
-0.000158637
-4.16978e-05
-6.58911e-08
-1.69135e-05
8.77364e-06
5.33131e-05
3.15614e-06
-1.07943e-05
2.4714e-05
-5.96535e-06
3.4323e-05
-2.73113e-05
-6.84708e-06
-1.89501e-06
-4.36436e-05
-0.000106618
-3.96516e-05
-2.96778e-05
-3.55599e-05
1.64222e-05
-5.91243e-05
-4.27188e-05
-1.0673e-06
-5.99993e-06
5.43522e-05
-3.54236e-05
-7.13796e-05
-7.13196e-05
4.01702e-05
1.15475e-05
-5.23521e-05
-1.11549e-05
9.64524e-06
3.18988e-05
-8.57752e-05
1.39612e-05
-6.13793e-05
-7.7422e-06
-3.48636e-05
-1.67094e-05
-4.55659e-05
-6.96029e-05
1.70247e-05
-4.88104e-05
-2.07971e-05
1.59814e-05
-1.05536e-05
-2.35448e-05
-1.24408e-05
-3.31043e-05
-4.60121e-05
-1.33582e-05
-4.22455e-05
-8.32276e-06
-5.94474e-05
-7.8258e-05
8.69739e-06
-2.01934e-06
-8.38247e-05
1.05492e-05
-3.22354e-05
-4.36768e-05
-0.000117681
-8.72591e-06
-3.99575e-05
-3.83075e-05
-7.16744e-05
9.37027e-06
3.00054e-05
-1.70404e-05
-2.39993e-05
-1.85613e-06
-5.11226e-05
-2.02559e-05
-8.13482e-05
-6.4095e-05
3.62429e-05
-8.02714e-05
-7.56315e-06
2.37459e-05
2.21167e-05
-5.27811e-05
-2.42551e-06
3.60704e-05
-9.46563e-05
1.02373e-05
-2.21482e-05
3.97032e-05
-4.1351e-05
-2.55478e-05
-5.70097e-06
3.04059e-05
-6.90704e-05
-4.7768e-05
3.67508e-05
-4.79654e-06
2.05939e-06
-4.86567e-05
-0.000107547
-6.60243e-05
-2.66009e-05
-2.24799e-05
-9.32976e-06
-1.88571e-05
-0.00010145
6.32263e-06
3.69592e-05
4.61028e-06
-1.08487e-05
-2.36547e-05
-8.50839e-05
-3.9091e-05
4.81103e-05
-6.97782e-06
-7.51887e-05
-6.46277e-05
-4.37897e-05
3.07558e-05
-5.53511e-05
1.83098e-06
-5.12168e-05
9.7167e-05
1.17974e-05
-4.14067e-05
-5.22411e-05
-4.83999e-05
-4.73995e-05
3.21253e-05
-3.50834e-05
-7.29868e-05
1.69757e-06
-2.53875e-05
-1.98885e-05
4.5062e-06
-1.73198e-05
7.05681e-05
5.70894e-05
-6.70662e-05
-3.48976e-05
-2.73385e-05
-7.02047e-05
-2.0606e-05
2.42674e-05
8.58865e-05
-8.70347e-05
6.93474e-06
-4.34536e-05
-3.62699e-05
6.90329e-05
3.75877e-05
-6.27587e-05
-4.99119e-06
2.55413e-05
-5.11215e-05
2.26244e-05
-1.34828e-05
-4.80211e-05
-1.98241e-05
3.05485e-06
3.73245e-05
3.42684e-05
-1.23486e-05
-2.31683e-05
-0.000132199
-1.66474e-07
-7.60588e-06
5.12575e-05
-7.35256e-06
-7.36323e-05
5.01692e-06
-3.30424e-05
-1.99093e-06
5.00251e-05
-7.7982e-06
-2.3389e-05
-8.48004e-06
1.05437e-06
-1.92293e-05
7.13236e-05
-5.15233e-05
7.82218e-06
3.11632e-05
6.53429e-05
-4.67908e-05
-2.9064e-05
-1.149e-05
-2.49565e-05
-9.3428e-05
-2.0482e-05
3.51593e-05
4.88628e-05
3.64076e-05
-1.64527e-05
3.77692e-05
6.14582e-05
-4.75245e-05
4.48447e-05
4.40087e-05
9.82254e-06
-5.10864e-05
1.23071e-05
2.34436e-05
7.04301e-05
4.96685e-05
-3.57141e-05
2.25289e-05
5.27385e-06
-2.51164e-05
4.80087e-05
3.40396e-05
2.11627e-05
-2.89199e-05
-7.34259e-05
2.16748e-05
3.48734e-05
1.4212e-06
-4.63353e-05
1.81724e-06
-1.65713e-05
5.22444e-05
1.92709e-05
-4.25105e-05
-9.05945e-05
6.88457e-06
2.94282e-05
9.43255e-06
3.90757e-05
-4.01767e-05
2.79772e-05
-3.30699e-05
9.02758e-05
1.87056e-05
2.19353e-05
-2.38944e-05
3.89215e-05
7.95069e-05
-1.43028e-06
-1.07867e-05
-4.31227e-05
-5.63426e-05
3.65557e-05
5.69096e-06
-2.97659e-05
3.18501e-05
-3.75101e-05
-1.97685e-05
6.36963e-05
5.06412e-05
-4.80588e-05
-4.18769e-05
-9.31264e-06
-2.63556e-05
-1.33663e-05
5.09446e-05
7.41071e-05
-1.38805e-05
-5.52128e-05
-6.0239e-05
2.25466e-05
4.01651e-05
-3.56473e-05
4.60858e-05
6.04023e-05
1.00419e-05
-2.72854e-05
-6.84019e-05
1.03841e-05
-3.90664e-05
-6.67316e-05
1.89329e-05
-3.86647e-05
-7.26085e-05
1.5534e-05
3.44658e-05
-9.18214e-06
-2.52387e-05
3.49992e-05
6.71941e-05
-7.81449e-06
-2.34847e-05
1.90872e-05
-3.45564e-05
-3.24682e-06
3.17623e-05
-4.33624e-05
-4.44569e-05
-1.29166e-05
6.19069e-05
-1.54723e-05
-1.92425e-05
-9.33884e-07
1.07803e-05
-2.67866e-05
6.4329e-05
6.28643e-07
3.16113e-05
-3.45437e-05
-2.02104e-05
3.29812e-05
-8.92987e-06
-5.33779e-05
-6.58382e-05
-1.97744e-05
2.38325e-06
3.65475e-05
8.36758e-06
-1.87813e-06
1.48288e-05
-2.75736e-05
4.24772e-05
2.79527e-05
9.69103e-05
6.65833e-05
1.94261e-05
1.45668e-05
-1.36638e-05
5.90174e-05
5.77691e-05
-3.533e-05
8.65557e-05
-1.88481e-05
-2.10226e-05
-5.39368e-05
1.12338e-05
-1.22987e-05
7.03167e-05
-1.07867e-05
6.14917e-06
5.77937e-05
3.4752e-05
-3.56392e-05
-5.85639e-06
4.38269e-05
2.99955e-05
1.4888e-05
3.09409e-06
-6.29969e-05
1.44141e-05
-9.3447e-05
4.10876e-05
-3.34161e-05
-7.29718e-05
6.78655e-06
-4.31375e-05
3.26065e-05
-5.40693e-05
-3.51889e-05
-7.38096e-06
-3.46781e-05
7.78143e-06
5.28588e-05
1.66988e-05
-1.61515e-06
7.61889e-05
-2.89641e-06
5.27892e-05
3.30999e-05
2.69054e-05
3.20117e-05
-4.14019e-05
-7.91212e-05
6.70354e-06
-3.71062e-05
3.38885e-07
3.12878e-05
2.55895e-05
4.62428e-05
-7.34441e-06
3.8557e-05
-1.82481e-05
8.604e-05
-3.51756e-05
-2.42109e-05
-2.44783e-05
3.96881e-05
3.96366e-05
-5.59643e-06
-1.59822e-05
5.26489e-05
-3.12827e-05
-9.51311e-06
1.32086e-05
3.0308e-05
4.01442e-05
-6.21299e-05
6.55756e-06
-4.02803e-05
7.68168e-05
-2.30565e-05
2.42679e-06
-2.36242e-05
-7.65698e-06
1.056e-06
-7.5846e-05
1.89048e-05
4.24921e-05
2.73297e-06
-4.68805e-05
-0.000111356
2.32968e-05
1.9283e-05
1.66986e-06
4.11419e-05
-1.26258e-05
3.11446e-06
-2.15399e-05
-7.41897e-05
3.578e-05
1.81666e-05
-4.43211e-05
1.38058e-05
2.49417e-05
-1.40067e-05
-5.45261e-05
-1.59673e-05
4.84827e-05
-4.49934e-06
-0.000139603
5.79741e-05
3.08062e-05
0.000100899
-3.72753e-05
3.82721e-05
1.96731e-05
-2.19457e-05
-3.16998e-05
-3.15026e-05
5.7979e-05
8.84748e-05
-9.06736e-06
-5.99889e-05
9.2187e-06
8.46386e-06
-1.7928e-08
-2.07856e-05
-3.90373e-05
0.000130274
-3.43214e-05
-4.70515e-05
5.37115e-05
-2.79641e-06
2.82237e-06
-3.79187e-05
-6.05411e-05
4.75427e-05
4.84361e-05
-1.75373e-05
3.74628e-05
-5.19099e-05
4.18173e-05
3.39493e-05
-6.99721e-05
2.73656e-05
3.88057e-05
1.6781e-05
-5.26786e-05
6.28696e-05
-2.19624e-05
-4.31013e-05
-7.40332e-06
-2.66787e-05
4.2547e-05
3.65009e-06
2.7573e-05
-4.73878e-05
-6.43719e-06
3.03091e-05
-2.26296e-05
-8.19345e-05
-4.95823e-05
1.36239e-05
3.36375e-05
4.5353e-05
-3.78168e-05
6.72047e-05
-2.02056e-05
-6.23037e-05
4.74696e-05
4.62761e-05
1.24048e-05
3.82878e-05
2.15035e-05
5.87145e-05
-6.49998e-05
-4.25663e-05
-1.34122e-05
4.39063e-05
4.78699e-05
-2.23207e-05
-6.05178e-05
1.98395e-06
-2.43727e-06
-3.00119e-05
1.48916e-05
2.92048e-05
7.28876e-05
7.06634e-05
-3.58253e-05
-0.000140627
2.58454e-05
1.2035e-06
-2.88256e-05
-4.697e-05
5.7243e-05
3.12587e-05
1.75566e-05
-0.000107817
-1.58476e-05
1.13324e-05
3.99522e-05
3.28139e-05
-4.30103e-05
3.20358e-05
3.74882e-05
-3.91933e-05
2.83309e-05
3.71946e-05
-1.37142e-05
3.56367e-05
-5.44158e-05
8.30449e-05
3.03236e-05
-1.9427e-05
-2.67292e-05
6.84279e-05
4.12178e-05
-2.91598e-05
3.35344e-05
3.92143e-05
3.68373e-05
-3.48373e-05
-2.81516e-05
1.41672e-05
3.5295e-05
-7.15666e-05
-2.1616e-05
4.6005e-05
3.64992e-05
2.31856e-05
-3.12359e-05
-7.13483e-05
2.25478e-05
-3.52726e-05
7.69856e-05
-4.16427e-05
-1.37859e-05
7.45143e-05
-5.40672e-05
4.00387e-06
-1.77849e-05
-5.58051e-05
2.01231e-05
5.95965e-06
5.05822e-05
6.31157e-05
-6.58255e-05
8.14187e-05
-4.32241e-05
-2.44336e-05
2.67205e-05
4.39445e-06
9.56748e-06
7.65501e-06
4.39084e-06
-4.22164e-05
2.17028e-05
1.01276e-05
-1.56355e-05
-7.88142e-05
-2.79715e-05
-7.33091e-06
2.62831e-05
6.22903e-06
2.38392e-05
-8.04116e-06
5.2616e-05
3.00958e-05
-3.07956e-05
-8.68586e-05
1.14749e-05
3.8733e-05
1.1161e-05
-2.85619e-05
-9.12545e-06
-2.48151e-06
2.21187e-05
-3.23006e-06
2.53442e-05
2.25467e-05
3.20966e-05
-2.08742e-05
-3.06277e-06
6.05511e-06
-3.41411e-06
3.49666e-05
-2.44873e-05
5.34739e-05
1.96627e-05
1.27887e-05
-1.15687e-05
2.92528e-05
2.87057e-06
3.39593e-05
-1.87167e-05
-2.88663e-06
-6.90413e-05
2.46684e-05
-5.03904e-06
-1.2684e-05
2.05983e-05
-2.63404e-05
-2.66195e-06
-3.02475e-05
-7.38943e-05
-1.16546e-05
0.000124287
-9.67178e-05
2.30562e-05
4.08883e-05
1.12082e-05
1.89696e-05
2.2975e-05
-6.50398e-05
-1.85566e-05
-3.58941e-05
9.8882e-06
-2.25082e-05
-0.00011462
5.06442e-05
-0.000120174
-5.21549e-05
0.000129995
-2.85542e-05
-3.29309e-05
1.3981e-05
-3.08803e-06
-4.58444e-06
-6.87173e-05
5.01168e-07
2.54065e-05
-3.0681e-05
-4.83699e-05
-2.09834e-05
3.77456e-05
3.99076e-05
1.09903e-05
-3.37762e-05
2.43068e-05
4.91927e-05
4.58611e-05
-7.13918e-05
-6.57423e-05
-4.48684e-05
5.14659e-05
2.45089e-06
-1.54669e-06
-6.96711e-05
3.42377e-07
-1.04237e-05
6.89365e-06
-2.29039e-05
-2.35531e-06
-3.0622e-05
3.27413e-05
-3.22703e-06
-1.03374e-05
-2.52563e-05
2.8462e-05
9.52232e-05
-3.0262e-05
3.21713e-05
4.43815e-05
-4.54086e-05
-0.000101102
-3.30774e-05
0.00011101
6.25439e-05
-5.28279e-05
-0.000107186
-1.18128e-05
6.85671e-05
3.46116e-05
-5.40467e-05
-5.21385e-05
4.75175e-05
-4.06376e-05
-0.000119436
6.12026e-05
-1.81561e-05
-3.11725e-05
0.000105493
-4.54729e-05
-9.29435e-05
-5.38457e-05
9.50554e-06
-5.54989e-05
1.67229e-05
4.28164e-06
-7.23691e-05
6.52485e-06
4.59249e-05
6.77735e-06
-2.06695e-06
5.32223e-05
2.83381e-05
-3.7598e-05
-4.85515e-05
0.000104193
-1.62813e-05
-5.72728e-06
-2.96996e-05
-2.67266e-06
-4.58119e-05
8.22789e-06
-1.31112e-05
-4.38879e-05
-3.36712e-05
-5.49547e-05
4.80602e-05
-3.439e-05
5.50936e-05
-3.26775e-05
-2.49943e-05
-9.60939e-06
3.26964e-05
-4.34383e-05
8.21745e-05
3.99025e-06
1.01072e-05
-2.64165e-05
-1.685e-06
5.18314e-05
-5.05229e-05
7.65342e-05
-2.69969e-05
-2.84482e-05
5.25312e-06
1.91287e-05
5.75269e-05
-1.5507e-05
1.41475e-05
1.54796e-05
9.67545e-05
-2.60589e-05
2.79746e-06
-6.86488e-05
-4.36476e-06
5.35557e-06
-6.22938e-07
-1.12274e-05
2.76114e-05
-7.06454e-05
2.38863e-05
3.6464e-05
-5.86093e-06
-1.47321e-05
5.85361e-05
-1.46404e-06
5.05242e-07
-8.36386e-06
-6.68822e-05
-7.4585e-06
-5.66775e-05
5.49135e-05
-1.55679e-05
-6.5117e-05
1.93967e-05
-2.50088e-05
1.49544e-05
4.44495e-05
-8.87795e-06
-5.64917e-05
-7.07052e-05
-8.34162e-06
-2.96298e-05
-2.15322e-06
-1.83219e-05
-1.89245e-06
-0.000102778
8.74815e-06
3.2482e-05
3.07964e-05
-0.000103662
-3.61558e-05
2.02424e-05
8.39115e-05
4.75254e-06
-1.31454e-05
3.19695e-05
7.14906e-07
-3.7137e-05
-7.51378e-05
-6.92122e-05
-2.21236e-06
-7.09705e-05
1.36718e-06
-4.37519e-05
5.21014e-05
-3.20332e-05
-2.11227e-05
9.38168e-06
-1.06089e-06
4.85126e-06
-2.59301e-05
5.72981e-05
-2.03844e-05
4.02203e-05
1.71227e-05
-4.36113e-05
4.79119e-06
-4.099e-05
-3.49246e-07
2.3094e-05
-3.31625e-05
1.34478e-05
1.23584e-05
-2.61037e-05
-4.63809e-05
1.17685e-05
-4.40206e-05
0.000100773
4.16171e-05
5.95758e-05
5.72682e-06
3.63542e-06
3.72169e-05
-2.83867e-05
-2.65326e-05
-3.87037e-05
-3.32441e-05
-2.94542e-06
-4.83461e-06
-7.42383e-05
-9.21183e-05
-4.12923e-05
9.36041e-05
1.79685e-05
2.4614e-05
5.07904e-05
-3.90913e-05
-4.86937e-05
-6.07772e-05
2.91872e-05
-7.01523e-05
2.39771e-05
5.71006e-05
1.43815e-05
-8.5445e-05
6.48925e-05
5.6416e-06
1.15013e-05
-0.000120717
5.33736e-05
7.36078e-05
5.39166e-06
1.3874e-05
1.18411e-05
-9.65106e-06
3.6696e-05
-3.03434e-05
4.71821e-05
6.17242e-05
-4.68048e-06
-4.04324e-05
-2.98398e-05
4.83403e-06
-1.19221e-06
4.36945e-05
-1.84961e-06
-1.13772e-05
-1.70616e-05
7.82475e-05
-4.58327e-06
1.7914e-05
-3.62855e-05
-7.78637e-05
7.38349e-05
-9.19309e-05
-5.20796e-06
2.09288e-05
2.30619e-06
7.05891e-05
3.83812e-05
7.42101e-06
5.50142e-05
-1.01445e-05
4.60943e-05
-1.68376e-05
-5.88744e-05
-4.91897e-05
5.14216e-05
5.45883e-05
-1.98534e-05
5.81008e-05
3.02007e-05
1.38804e-05
2.24966e-05
6.25561e-05
6.90122e-06
-8.80086e-05
-1.34255e-05
-5.00795e-06
4.86998e-05
5.99253e-05
6.30913e-05
1.42655e-06
2.14427e-05
-2.66379e-05
-9.90415e-06
-6.22048e-05
-1.60284e-05
3.25944e-05
-3.85363e-05
-1.90414e-05
5.31536e-05
-2.28165e-05
1.54097e-05
-4.23561e-05
-5.64847e-07
-5.1148e-05
-1.07908e-05
-0.000114607
2.0635e-05
1.91709e-05
7.28541e-05
2.7328e-05
-4.94908e-05
5.05777e-05
5.27869e-05
6.41992e-05
-7.99028e-06
4.43971e-05
-4.86515e-05
-2.58863e-05
-3.12887e-05
9.76642e-05
-4.46027e-05
-4.87098e-05
2.70451e-05
-5.04584e-05
1.36551e-05
-9.01831e-05
-0.000131355
6.04797e-05
5.6749e-05
-1.70097e-05
2.47727e-05
-9.10857e-06
5.167e-05
-8.06588e-05
3.82907e-05
3.78346e-05
1.59071e-05
-7.97561e-06
-6.65488e-06
3.57418e-05
3.13772e-05
-9.32615e-05
-4.72956e-05
-9.38082e-05
-4.97692e-05
6.84744e-05
-3.54388e-05
9.14512e-06
-3.66222e-05
3.87212e-05
1.69344e-05
4.47613e-05
-5.40488e-05
2.94945e-05
6.61318e-05
1.22412e-05
-6.64291e-05
1.13377e-06
1.48164e-05
-1.36928e-05
6.08945e-05
-9.08738e-07
7.89305e-05
9.09693e-06
5.2616e-05
-9.66366e-05
3.41132e-05
6.60541e-06
-1.27826e-05
-4.43452e-05
-2.06705e-05
3.1502e-06
-9.30391e-07
-6.3061e-05
-0.000100798
-4.15868e-05
-9.15081e-05
-4.81864e-05
5.62922e-05
-1.52458e-05
-5.22905e-05
-2.41197e-05
-1.08292e-05
-4.5769e-05
-4.23091e-05
1.19053e-05
2.83609e-05
-1.41365e-05
-5.28244e-05
-6.1348e-05
1.77326e-05
1.07333e-05
-2.08281e-05
5.963e-05
1.7907e-06
2.51199e-05
-2.36357e-05
5.8867e-05
3.18957e-05
4.76106e-05
-7.31891e-05
7.2247e-05
-0.000100921
-6.24114e-06
6.49311e-05
8.48924e-06
3.23065e-05
-3.30701e-06
-4.32209e-05
2.3786e-06
1.99968e-05
-1.27291e-05
9.59355e-06
3.61397e-05
2.75426e-05
6.92134e-05
-2.72389e-06
-6.32238e-05
-6.14568e-06
-7.61088e-06
-1.02117e-05
4.45028e-05
5.20097e-06
2.67312e-05
-6.62985e-06
-4.79841e-06
-2.94806e-05
1.43551e-05
5.68992e-06
6.79191e-05
9.01218e-06
3.43911e-05
1.84246e-05
1.29043e-05
-4.46519e-05
3.45937e-05
3.36545e-05
1.93832e-06
-1.88095e-05
4.46872e-05
-5.2389e-05
6.75367e-05
7.74653e-05
6.37164e-06
8.13846e-05
-3.18104e-05
2.20669e-05
-1.73562e-05
-2.87808e-05
-6.86578e-05
1.19233e-05
2.47908e-05
1.23704e-05
-3.48679e-05
2.16783e-05
-2.2075e-05
-3.52494e-06
1.23344e-05
1.70944e-06
2.97129e-05
-6.88568e-05
-1.33736e-05
9.18958e-05
-3.43518e-05
1.47278e-05
-1.23633e-05
4.94566e-05
2.42064e-05
-4.4468e-05
5.05935e-05
0.000106778
9.66932e-05
6.52508e-05
8.90228e-07
-7.20704e-06
-1.14563e-05
6.66906e-05
-5.44777e-06
4.01791e-05
-2.3398e-05
4.17558e-05
-3.41272e-05
-2.13976e-05
6.28084e-06
-2.6264e-05
3.58209e-05
-8.93136e-05
4.69465e-05
-3.5755e-05
3.30255e-05
2.34644e-05
-9.97112e-05
2.21331e-05
3.57017e-05
-1.87464e-05
2.13265e-05
-6.78231e-05
2.71618e-05
-5.16982e-05
5.68141e-05
4.88441e-05
-1.74806e-05
3.8041e-05
4.54166e-05
1.17881e-05
-8.37957e-06
2.07492e-05
-2.05638e-05
5.28257e-05
-7.5706e-05
-4.26273e-05
-7.67305e-06
2.04982e-05
-1.5435e-05
-3.12332e-05
1.17394e-05
6.21653e-05
4.88085e-05
4.33624e-06
-0.00012757
-5.02241e-05
-6.86671e-05
-6.60998e-05
3.09139e-05
7.61505e-05
-7.0136e-05
-7.02997e-06
9.28482e-06
4.82403e-05
3.84043e-06
8.47282e-06
-6.75761e-05
-1.8583e-05
1.21741e-05
-8.66805e-06
-3.1952e-05
-1.42838e-05
3.18431e-06
7.32997e-06
1.82407e-05
2.56514e-05
-6.78836e-05
-4.71459e-06
3.49288e-05
-5.05331e-05
1.0794e-05
-1.50148e-05
-1.63055e-05
-2.9539e-05
9.53889e-05
2.63904e-05
-1.76689e-05
-2.15017e-05
-1.2799e-05
8.03324e-06
-1.35808e-05
2.6391e-05
-7.18527e-06
-1.90844e-05
2.17274e-05
5.39327e-05
-9.03434e-05
5.79043e-05
-1.44775e-05
-1.46057e-05
-3.8323e-05
-4.54379e-05
2.6162e-05
5.74817e-05
2.07163e-05
1.80581e-05
2.61939e-05
-7.22182e-06
-2.65972e-05
2.38708e-05
-3.81797e-05
-3.29992e-05
2.86612e-05
4.19561e-06
5.3414e-05
-1.29025e-05
-4.54602e-06
9.10494e-05
1.63323e-05
1.69144e-05
-4.63275e-05
3.55744e-05
-3.91719e-05
2.29457e-05
1.72228e-05
3.08582e-06
6.80583e-05
6.72808e-05
-1.70234e-05
-7.54744e-06
4.55868e-05
-1.23878e-05
-6.61262e-06
0.000122597
3.2628e-05
1.82122e-05
2.49491e-05
-5.22539e-05
-2.22391e-05
-5.70168e-05
1.30455e-06
7.69063e-06
2.41776e-05
1.07719e-05
-5.20684e-05
1.76704e-05
6.44929e-05
-6.11886e-05
5.44075e-05
-4.49326e-05
-7.05202e-05
6.23055e-06
3.2792e-05
4.70881e-05
1.32737e-06
1.32954e-05
-7.78601e-05
-2.81829e-05
-6.89272e-06
0.000112601
3.68478e-05
-3.34257e-05
4.85629e-05
3.18342e-05
1.1489e-05
6.94905e-05
0.00013327
-7.38592e-05
-4.20368e-05
-1.68972e-05
2.04111e-05
8.13301e-06
-1.95539e-05
3.47554e-05
5.05915e-05
-6.30394e-05
-4.22688e-05
1.7963e-05
5.70347e-05
-6.66711e-07
2.83978e-05
-3.47802e-05
-8.23166e-05
-3.16934e-05
-5.51025e-05
-1.69484e-05
6.43991e-05
-5.57768e-05
5.25209e-05
-0.000112341
-7.10648e-05
-1.52236e-05
-1.60274e-05
-3.59298e-05
5.28323e-05
4.4028e-05
-4.75498e-06
-6.05783e-05
-2.03255e-05
1.72124e-05
2.40915e-05
-2.15003e-05
-3.80279e-05
1.84207e-05
-5.22975e-05
-1.48043e-05
-9.04258e-05
-1.86136e-05
-1.40979e-05
0.000121308
-2.547e-05
5.25208e-05
3.79472e-05
3.11935e-05
-3.85307e-05
-5.10248e-06
-4.49662e-05
2.62951e-05
1.12427e-05
-1.86053e-05
1.74432e-05
-3.76212e-05
8.71113e-06
-3.17955e-05
7.1465e-05
-7.47018e-05
0.000101809
5.19644e-05
3.1805e-05
1.94157e-05
4.63661e-05
-3.00503e-06
1.62397e-05
7.9999e-05
3.67593e-06
-1.37994e-05
-5.21087e-05
-5.62185e-05
2.68224e-05
-3.78018e-05
-4.78229e-05
2.88637e-05
-2.68994e-05
-1.16543e-05
-5.02807e-05
3.1076e-05
-2.00596e-05
3.81087e-05
-8.71739e-05
-4.69045e-05
1.67189e-05
4.92433e-05
9.12719e-06
1.42609e-06
-6.69423e-05
-7.27304e-05
-1.43613e-05
-9.74443e-06
-1.5698e-05
2.67378e-05
-9.21225e-05
-5.88646e-05
-1.25876e-05
5.10605e-05
-8.97493e-05
7.86015e-05
1.30902e-05
1.51685e-05
-0.000114672
-4.19714e-05
1.06478e-05
8.84155e-05
-6.75383e-06
-6.93067e-06
1.08088e-05
-9.15197e-05
-1.49584e-05
1.07784e-05
5.18087e-05
-3.28289e-05
4.25933e-05
9.43069e-06
7.85687e-07
4.03607e-05
-3.83519e-06
2.66726e-05
-2.21876e-05
6.11064e-07
2.16416e-06
1.83089e-05
-2.01631e-05
-7.52346e-05
-8.20155e-05
-4.08831e-05
3.06887e-05
3.11452e-05
-1.76036e-05
-1.14893e-05
3.875e-05
9.27423e-06
1.17538e-05
-4.44876e-05
-5.27482e-05
-4.26521e-05
9.60716e-05
-3.91065e-05
-6.17567e-05
-4.51249e-05
4.72052e-06
-4.15778e-05
-1.74774e-06
2.57664e-05
4.81145e-05
-3.50764e-05
2.89144e-05
3.42634e-05
2.19489e-05
-2.03153e-05
-2.84291e-05
2.95846e-05
6.23255e-05
1.81495e-05
-1.77096e-05
-4.22898e-05
-3.51854e-06
6.3222e-05
3.54683e-06
7.63207e-06
-5.29387e-06
1.01697e-05
2.74983e-05
2.91361e-05
-2.60759e-05
-5.97395e-05
8.67881e-05
3.29313e-05
-1.45724e-05
-1.42372e-05
5.72902e-05
3.8431e-06
9.81884e-05
0.000121366
-2.85936e-05
2.4998e-05
7.87154e-06
-1.8672e-05
-1.70154e-05
-7.32372e-05
0.00011208
-1.25975e-05
-6.01779e-05
7.86316e-06
3.08841e-05
9.78401e-06
7.84127e-06
1.71365e-05
4.88944e-08
-2.67229e-05
-2.5681e-05
-4.13372e-05
-4.55834e-05
-1.7624e-05
-7.76572e-06
-4.82691e-05
7.1398e-05
1.64248e-05
3.01737e-05
-3.19595e-05
1.39839e-05
-1.39404e-05
-1.55892e-05
4.47629e-06
-1.65857e-05
8.27658e-05
5.56019e-05
5.67315e-06
3.54123e-05
2.86195e-06
-1.63057e-05
2.07495e-05
9.6329e-06
-1.45014e-05
-4.88878e-05
-4.07483e-05
-9.69192e-06
4.12578e-05
-2.15806e-05
-3.41526e-05
5.64968e-05
-1.37318e-05
-5.04199e-05
3.84743e-05
-2.33622e-05
-1.19593e-06
-5.94466e-05
5.9522e-06
6.40077e-05
-7.3972e-05
-2.23713e-05
-4.28874e-06
-7.43163e-05
-1.58095e-05
5.60065e-05
-2.41017e-05
5.20146e-05
4.58725e-05
-3.16426e-05
0.000122278
2.89966e-05
1.20706e-05
-2.74089e-05
-3.4468e-05
-3.202e-05
5.98456e-05
4.2791e-05
-2.54271e-05
-1.62855e-05
4.25264e-05
4.55983e-05
-7.08048e-05
-4.53842e-05
-1.75921e-05
6.00131e-05
3.7081e-05
4.36968e-05
-7.64534e-06
2.17552e-05
1.48438e-05
1.47809e-05
3.49518e-05
1.44989e-05
-7.17354e-05
5.90797e-05
3.93527e-05
-1.62122e-05
4.74532e-05
-1.8456e-05
-3.84236e-05
8.4609e-05
5.78985e-05
5.29932e-05
-2.82942e-05
-1.40264e-05
-3.38187e-06
6.56863e-05
1.70165e-05
1.81664e-05
-1.45178e-05
-3.22164e-05
8.30193e-06
5.70649e-05
3.72088e-05
6.89619e-05
3.92869e-05
3.0786e-05
-1.5935e-05
4.17499e-05
8.47306e-06
-3.21826e-05
-1.07548e-05
-1.45922e-05
5.39316e-05
1.21885e-05
2.1124e-05
-2.64747e-05
1.1299e-05
-2.39082e-05
-1.44511e-05
1.09989e-05
-7.73557e-06
4.69049e-06
1.68594e-05
6.6706e-05
1.57991e-05
-0.000107579
-8.2499e-05
6.52263e-06
-5.85077e-05
5.17319e-05
1.84863e-05
1.66774e-05
-7.07682e-05
5.68538e-06
-1.86228e-05
-4.3344e-05
5.83276e-05
-4.15358e-05
-7.76739e-05
-1.33211e-05
-3.7475e-05
-1.10024e-06
5.06304e-05
3.43448e-05
5.214e-05
2.95315e-05
4.71442e-05
-2.02374e-05
0.000134813
5.51662e-05
-3.82712e-05
-1.12209e-05
0.000111733
1.12853e-06
-1.38335e-05
-2.07323e-05
-1.05344e-05
5.75138e-06
2.51086e-05
-6.47178e-05
1.22271e-06
0.00011825
2.02318e-05
-6.96788e-05
-8.34581e-05
9.06894e-05
4.29548e-05
-6.09939e-05
-2.33599e-06
4.52402e-06
-2.48619e-05
-7.49837e-05
-6.30121e-06
3.39791e-05
6.28864e-05
-2.65893e-06
-2.97544e-05
-6.6773e-05
-1.08314e-05
7.42322e-06
3.03179e-05
-1.26918e-05
1.26485e-05
-3.24743e-05
-1.54034e-05
4.6596e-05
-6.0664e-07
-7.33235e-05
-3.61169e-05
3.19347e-05
5.0712e-05
5.52046e-05
-3.86606e-05
-2.71011e-05
-1.73179e-06
4.00438e-05
-1.28824e-05
1.1524e-05
2.7538e-05
1.51002e-05
2.02364e-05
3.27816e-05
-0.000103583
-2.37202e-05
5.62994e-05
-3.56053e-05
-8.56419e-05
0.000101618
-2.90696e-05
2.15791e-05
-5.19505e-05
6.29365e-06
-5.95588e-05
3.80189e-06
-4.01157e-05
2.21791e-05
-9.73837e-06
6.35828e-05
-2.76123e-05
-2.54393e-05
9.06726e-05
-5.55888e-05
-3.5144e-05
1.47803e-05
-2.3094e-05
3.46852e-05
-4.10145e-05
-1.09312e-05
2.9841e-05
3.45642e-05
-4.78459e-05
-5.78749e-05
-3.72978e-05
3.58616e-05
-1.02361e-05
-1.76758e-05
3.83473e-05
4.55091e-06
-3.07257e-05
-6.31748e-05
6.1912e-06
-5.68882e-05
0.000120349
-0.000117728
-6.80868e-05
1.01875e-05
-1.02164e-05
2.82163e-05
-1.96021e-05
-6.25604e-06
3.50745e-05
9.93186e-06
-5.96486e-05
5.4057e-05
-2.97577e-05
-7.25733e-07
-9.39076e-06
-2.64798e-05
5.89007e-05
9.35842e-05
7.95014e-05
-1.68922e-05
-6.82934e-05
-7.77043e-05
4.75628e-05
-1.31771e-06
1.1745e-05
5.16309e-05
-6.31507e-05
2.21427e-05
3.45721e-05
-3.89619e-05
4.9273e-05
9.85316e-06
-2.7369e-05
-7.18017e-05
-2.20723e-06
9.41264e-06
5.68593e-05
-2.01399e-05
-8.62253e-06
7.08969e-06
9.57632e-07
-2.9198e-05
-3.67719e-05
9.86969e-07
-7.08364e-06
-7.7707e-05
4.07128e-05
2.28039e-05
-2.33529e-05
-2.82733e-05
6.35581e-06
-3.10615e-05
-2.37783e-05
5.87651e-05
3.77758e-05
-8.8854e-05
1.88743e-05
2.82157e-05
2.42071e-05
-1.97263e-05
3.13715e-05
2.67721e-05
-2.78914e-05
-1.14414e-05
4.39798e-05
-1.84723e-05
6.28969e-06
-9.41625e-06
3.67078e-05
-1.6539e-05
-2.21904e-05
-3.26345e-05
2.11544e-05
-9.05286e-05
-2.25265e-05
7.17794e-06
-1.67805e-05
-5.12952e-05
-4.15263e-05
3.0258e-05
1.87585e-05
1.34512e-05
6.79977e-05
0.000103678
-2.68695e-05
-5.62221e-05
-7.36886e-06
-8.72905e-06
-8.2209e-06
-0.000119192
3.07657e-05
9.97074e-05
7.93554e-05
2.35243e-05
2.89502e-06
3.23565e-05
6.61868e-06
-1.27404e-05
-1.1237e-05
3.50131e-06
6.08938e-05
-6.73521e-06
5.99331e-05
-9.10787e-06
-4.93438e-05
-1.25007e-05
-1.7921e-05
3.41783e-05
-3.37977e-05
7.39517e-06
5.94531e-05
0.000102923
1.58967e-05
2.07382e-06
6.60837e-05
-5.49525e-05
-6.42203e-05
4.83589e-06
5.86055e-05
-3.53624e-05
-0.000113619
-3.21866e-05
8.25233e-06
3.03728e-05
4.09433e-06
1.25875e-05
-2.57908e-05
4.03007e-06
-1.99418e-05
-0.000115459
-8.30321e-06
2.34318e-05
1.67682e-05
-9.89914e-06
-1.77937e-05
3.41063e-05
5.38377e-05
-8.89297e-07
-3.26859e-05
-1.44828e-05
1.08397e-05
2.86294e-05
1.41952e-05
-1.13213e-05
4.36339e-05
-9.70019e-06
4.36594e-05
-6.26047e-06
-6.49586e-05
8.33401e-05
7.37351e-06
-2.33591e-05
-5.29964e-05
8.21939e-06
-7.67078e-05
-5.47338e-05
1.69983e-05
-2.35286e-05
6.93038e-05
-5.89245e-05
-1.5897e-05
-3.79642e-06
-4.36548e-05
1.74949e-06
6.90902e-06
-1.56342e-05
-1.2681e-05
-6.3139e-06
-2.87474e-05
6.35836e-05
-1.27363e-05
2.98874e-05
-1.94586e-05
0.00010666
-6.87316e-05
2.64309e-06
7.97833e-05
-7.28986e-05
-2.11627e-05
-1.82877e-06
-5.65476e-06
-3.07191e-05
-1.66125e-07
6.13101e-05
-4.53608e-05
-3.93705e-06
2.74235e-05
5.10005e-05
6.30133e-06
2.15231e-05
-5.93148e-05
-4.52383e-05
-4.56913e-05
-4.39744e-05
-2.38919e-05
-5.0343e-05
-2.24276e-05
-6.2891e-05
1.11943e-05
0.000117078
1.08841e-05
1.60327e-06
7.11589e-06
-1.24836e-05
-9.79607e-05
1.17278e-05
-2.43352e-05
-6.52871e-05
-4.57339e-05
9.77494e-05
-2.84512e-05
2.46851e-05
2.89715e-05
-3.3951e-05
9.19261e-05
-5.06383e-05
-3.13994e-05
4.18397e-07
2.26259e-05
5.23939e-05
-4.63504e-05
3.01958e-06
-7.25879e-05
3.62422e-05
4.53799e-05
5.10279e-05
4.96121e-05
1.14618e-05
6.31483e-06
1.38574e-05
1.41526e-06
1.35629e-05
-5.943e-05
-5.26094e-05
-3.14449e-05
3.68987e-05
-1.13109e-06
4.3941e-06
1.65973e-05
1.01095e-05
-4.56737e-05
-5.67071e-05
-2.16058e-05
3.753e-06
3.02108e-05
2.47171e-05
-3.70552e-05
-4.68161e-05
-8.03267e-05
-3.89203e-05
8.46453e-05
4.35198e-05
1.98978e-05
-8.17538e-06
-6.95768e-06
-5.3876e-05
3.58438e-05
-6.18509e-05
7.90432e-05
-1.59475e-05
-3.99167e-05
-6.26177e-05
3.51218e-05
5.15335e-05
1.97033e-06
-3.47081e-06
-9.94967e-06
5.45725e-05
-4.35938e-05
-3.20036e-05
3.58506e-05
-2.33704e-05
-7.19377e-06
3.16274e-05
-2.36786e-05
4.79084e-05
6.11596e-05
-1.50183e-05
5.83357e-05
-1.60111e-05
-5.55502e-05
-4.11186e-05
3.92949e-05
8.73671e-05
-9.01846e-06
2.39064e-05
5.31231e-05
-2.11771e-06
3.75928e-05
-6.11141e-05
-5.3782e-05
4.75653e-05
-2.97433e-05
-7.41598e-05
-1.30138e-05
3.8289e-06
-4.95902e-05
-1.00629e-05
1.48059e-05
3.36755e-06
-4.77558e-05
-3.26614e-05
4.7799e-06
4.40958e-05
4.0431e-05
-4.65778e-05
-4.65799e-05
9.95432e-06
6.58092e-05
1.77757e-05
-1.76014e-05
-0.000102062
4.74709e-05
-2.01665e-05
-7.77538e-06
-8.79867e-06
4.50334e-05
-5.59189e-06
-5.70057e-05
-1.93107e-05
-3.39666e-05
4.75908e-05
2.1651e-05
-2.22095e-05
-2.47795e-05
-2.54153e-05
-5.8905e-06
-1.15656e-05
-4.13184e-05
-4.02362e-05
1.20653e-06
-4.48262e-05
2.04251e-05
3.3807e-06
-2.82915e-05
3.01644e-05
9.34827e-06
-6.71297e-05
-4.0574e-05
7.09333e-05
-3.3955e-05
-2.67511e-05
2.17739e-05
1.56361e-05
1.44399e-05
-8.90158e-06
-1.1994e-05
1.44322e-05
8.70286e-05
-9.70089e-07
1.24229e-05
-5.59277e-05
-1.92773e-05
3.90811e-05
3.07022e-06
-4.05497e-05
7.5663e-06
6.7285e-05
3.94986e-05
-7.47538e-05
-3.48642e-05
2.46887e-05
-5.16149e-05
3.76685e-06
-4.08544e-05
-1.83186e-05
8.32832e-05
-3.53501e-05
-3.56367e-05
-9.10228e-06
-2.37043e-05
-7.61584e-05
-4.31736e-05
-3.44525e-05
3.03319e-05
-5.93202e-05
-4.43421e-05
-1.38483e-05
2.80143e-05
4.43449e-05
7.11228e-06
-4.19095e-07
-3.37961e-05
5.63179e-05
4.62118e-05
-7.51622e-05
0.000106831
-4.85461e-05
-1.38162e-05
-8.41217e-07
-1.47611e-05