# vtk DataFile Version 1.0
Net Charge Density
ASCII
DATASET STRUCTURED_POINTS
DIMENSIONS 256 128 1
ORIGIN 0 0 0
SPACING 0.15625 0.15625 1
POINT_DATA 32768
SCALARS rhonet float
LOOKUP_TABLE default
-3.89619e-06
-9.51276e-05
0.000144792
9.63218e-05
3.56846e-05
0.000120451
-0.000118445
9.18582e-05
0.000154216
2.28994e-05
-3.75607e-05
0.000108725
0.000103821
7.94451e-05
0.000109346
4.9961e-05
8.77433e-05
0.000140236
4.05879e-05
-6.79102e-05
-6.40692e-06
0.000141859
0.000144767
4.7782e-05
3.7268e-05
2.0743e-05
7.74215e-05
9.05888e-05
-1.35215e-05
-7.27428e-05
5.23026e-05
3.97234e-05
4.3669e-05
6.90082e-05
1.24413e-05
0.000171713
1.68076e-05
7.28723e-05
7.73581e-05
-5.53136e-06
2.29322e-05
6.83207e-06
0.000136404
9.39809e-05
2.0939e-05
1.86829e-05
-3.16137e-05
6.95544e-05
0.000116213
7.88722e-05
-1.2008e-05
2.49784e-05
8.34422e-05
0.000148995
3.55956e-05
1.75042e-05
0.000151011
-5.17466e-05
5.67851e-06
7.16957e-05
5.028e-05
6.0602e-05
7.16839e-06
8.01801e-05
8.22488e-05
-8.03834e-05
4.41819e-05
0.000136175
4.09959e-05
4.82834e-05
7.92333e-05
3.67111e-05
-2.69159e-05
4.96673e-05
-1.14786e-07
5.1155e-05
4.20864e-05
-3.8308e-05
9.21622e-05
0.000106615
8.71844e-05
2.5408e-05
7.49613e-05
0.000101106
4.54689e-05
-4.48013e-06
-1.6691e-05
6.70484e-05
0.000119669
-2.3487e-05
9.00029e-05
-1.47956e-05
-3.90525e-05
-6.21425e-06
-8.99173e-05
5.22721e-05
0.000157961
2.40975e-05
9.16884e-05
-2.49443e-05
0.000157723
9.0919e-05
-3.16952e-06
9.47254e-05
3.90388e-05
0.00013097
-2.57976e-07
-6.85492e-05
2.66288e-06
7.39996e-05
0.000133419
5.79277e-05
2.02986e-05
3.31155e-05
8.0421e-05
4.36592e-05
1.22658e-05
7.49693e-05
5.09601e-05
4.32276e-05
-3.98807e-05
-3.45639e-05
4.04447e-05
2.44897e-05
0.00011572
6.60873e-05
1.82549e-05
8.1309e-05
1.99641e-05
-1.88104e-05
0.000119796
9.26164e-05
-2.24391e-06
3.77488e-05
2.03243e-05
6.79702e-06
4.4609e-05
-3.19163e-05
4.68967e-05
-1.15023e-05
-4.98404e-05
2.32959e-05
2.09622e-05
0.000160761
9.88224e-05
2.06381e-06
0.000137836
1.15242e-05
-3.11242e-05
0.000132418
1.7827e-05
2.9132e-05
0.000108428
-8.34547e-06
3.45041e-05
4.32307e-05
5.74649e-06
3.4271e-05
-5.27641e-06
1.75425e-05
7.67775e-05
2.50082e-05
0.00011271
-2.20691e-05
3.25853e-05
2.55228e-05
5.84619e-05
-6.12726e-05
0.000105448
0.000137295
2.50292e-05
4.32238e-05
7.45819e-05
0.000111579
-2.02681e-05
-8.13336e-06
8.72929e-05
-8.23222e-05
1.15579e-05
3.31807e-05
8.87694e-05
-7.05996e-05
-3.18113e-05
5.65394e-06
1.04989e-05
7.98538e-05
4.14201e-05
7.20923e-05
0.000102553
7.46853e-05
2.48844e-05
0.000198125
8.16127e-05
-6.56991e-05
6.242e-05
0.000201229
4.75226e-05
8.32757e-05
7.8667e-05
-1.63086e-05
5.95988e-05
0.00014917
4.39016e-05
3.83357e-05
-1.00755e-05
6.97711e-05
-5.98887e-05
5.34242e-05
6.86804e-05
8.57905e-05
6.81023e-05
0.000137439
0.000106096
-2.40526e-05
0.000111081
-0.000131281
0.000102691
9.90944e-05
-5.28728e-05
-3.79214e-05
8.69742e-05
0.000114877
0.000176992
3.40525e-05
7.95294e-05
5.67446e-05
-3.69136e-05
-1.51403e-05
8.69032e-05
6.86068e-05
6.2281e-06
4.16543e-05
2.36371e-05
2.60692e-05
0.000121307
-3.557e-05
-2.05769e-05
2.75009e-05
5.9451e-05
8.9797e-06
1.84991e-05
8.66946e-05
-5.82666e-05
-3.07569e-07
2.65902e-05
-1.44099e-05
-2.21959e-05
-3.95465e-05
0.000128655
-4.29642e-06
2.10481e-05
-3.85132e-05
0.000102294
2.1438e-05
2.40527e-05
4.18616e-05
-0.0001049
2.47044e-05
-6.30288e-05
-2.51194e-05
-2.38869e-05
5.12265e-05
-2.60444e-05
-7.57638e-05
4.98929e-05
-6.60461e-05
-4.28997e-05
2.33413e-05
-5.99084e-05
-8.02729e-05
3.00235e-06
-4.24259e-05
4.66185e-06
1.08914e-05
-2.1575e-05
-4.06092e-06
-5.82077e-05
-6.74936e-05
-0.000106138
-1.79198e-05
-2.00461e-05
-5.72717e-05
-2.5276e-05
7.72998e-06
-3.07411e-05
-8.5387e-05
-3.53893e-05
-8.36118e-06
2.74421e-05
-7.95682e-05
-6.67484e-05
2.31332e-05
-0.000103178
-3.37884e-05
1.98339e-05
-8.20329e-05
-5.15865e-05
-4.38411e-05
8.67248e-06
3.55997e-05
-2.47126e-05
4.87408e-06
-0.000112384
-3.15168e-05
3.88793e-05
-3.39421e-05
-6.56128e-05
-4.11932e-05
-3.17377e-05
2.98232e-05
-2.85321e-05
-3.54571e-05
-2.34864e-05
-0.00011611
1.48109e-05
-3.37933e-05
4.563e-05
-5.12687e-05
-5.7285e-05
-3.73457e-05
-3.01478e-05
-6.05665e-05
-1.00285e-05
-7.96344e-05
-0.000109192
1.21042e-05
-4.39818e-05
9.01753e-06
-1.84356e-05
1.7242e-05
-5.13536e-05
-1.04342e-05
4.761e-05
-2.54941e-05
5.74085e-05
2.16183e-07
-3.24121e-05
-5.04446e-05
-8.22557e-05
2.84829e-05
2.44662e-05
-6.16945e-05
-0.000158637
-4.16979e-05
-6.5309e-08
-1.69137e-05
8.77399e-06
5.33129e-05
3.15602e-06
-1.07943e-05
2.47146e-05
-5.96547e-06
3.43231e-05
-2.73115e-05
-6.84708e-06
-1.89513e-06
-4.36441e-05
-0.000106617
-3.96518e-05
-2.96771e-05
-3.55595e-05
1.64217e-05
-5.91242e-05
-4.27186e-05
-1.06741e-06
-5.99946e-06
5.43522e-05
-3.54243e-05
-7.13799e-05
-7.13181e-05
4.01697e-05
1.15476e-05
-5.23522e-05
-1.11553e-05
9.64571e-06
3.18988e-05
-8.57757e-05
1.3962e-05
-6.13796e-05
-7.74208e-06
-3.48627e-05
-1.67098e-05
-4.55661e-05
-6.96029e-05
1.70252e-05
-4.88105e-05
-2.07968e-05
1.59814e-05
-1.0553e-05
-2.3545e-05
-1.24411e-05
-3.31043e-05
-4.6013e-05
-1.3358e-05
-4.22455e-05
-8.32253e-06
-5.94477e-05
-7.82582e-05
8.69692e-06
-2.01957e-06
-8.38251e-05
1.05484e-05
-3.22359e-05
-4.36761e-05
-0.000117681
-8.72579e-06
-3.99578e-05
-3.83077e-05
-7.16745e-05
9.37073e-06
3.00051e-05
-1.70409e-05
-2.3999e-05
-1.85589e-06
-5.11225e-05
-2.02558e-05
-8.1348e-05
-6.40948e-05
3.62428e-05
-8.02708e-05
-7.56374e-06
2.37458e-05
2.21169e-05
-5.27813e-05
-2.4254e-06
3.60706e-05
-9.46566e-05
1.02372e-05
-2.21478e-05
3.97031e-05
-4.13511e-05
-2.55483e-05
-5.70063e-06
3.04061e-05
-6.90699e-05
-4.7768e-05
3.67505e-05
-4.79643e-06
2.05915e-06
-4.86565e-05
-0.000107547
-6.6024e-05
-2.66004e-05
-2.24796e-05
-9.32999e-06
-1.88574e-05
-0.00010145
6.32252e-06
3.6959e-05
4.61075e-06
-1.08492e-05
-2.36549e-05
-8.50845e-05
-3.90906e-05
4.81098e-05
-6.9777e-06
-7.51886e-05
-6.46277e-05
-4.37896e-05
3.07556e-05
-5.53511e-05
1.83098e-06
-5.12168e-05
9.71677e-05
1.17974e-05
-4.14068e-05
-5.22414e-05
-4.83997e-05
-4.73997e-05
3.21253e-05
-3.50829e-05
-7.29873e-05
1.69734e-06
-2.53875e-05
-1.98886e-05
4.50586e-06
-1.73202e-05
7.05677e-05
5.70889e-05
-6.7067e-05
-3.48981e-05
-2.73386e-05
-7.02045e-05
-2.06067e-05
2.42676e-05
8.58861e-05
-8.70345e-05
6.93463e-06
-4.34536e-05
-3.62695e-05
6.90328e-05
3.75883e-05
-6.27586e-05
-4.99131e-06
2.55418e-05
-5.11212e-05
2.26249e-05
-1.3483e-05
-4.80216e-05
-1.98238e-05
3.05497e-06
3.73243e-05
3.42681e-05
-1.23484e-05
-2.31677e-05
-0.000132199
-1.66823e-07
-7.60611e-06
5.12581e-05
-7.35326e-06
-7.36323e-05
5.01669e-06
-3.30424e-05
-1.99082e-06
5.00255e-05
-7.79785e-06
-2.33895e-05
-8.48051e-06
1.05402e-06
-1.92295e-05
7.13241e-05
-5.15232e-05
7.82218e-06
3.11632e-05
6.53442e-05
-4.67899e-05
-2.90638e-05
-1.14903e-05
-2.49568e-05
-9.3428e-05
-2.04819e-05
3.51596e-05
4.88634e-05
3.64084e-05
-1.64527e-05
3.77699e-05
6.14577e-05
-4.75245e-05
4.48452e-05
4.40081e-05
9.82289e-06
-5.10867e-05
1.23067e-05
2.34441e-05
7.04299e-05
4.96686e-05
-3.57147e-05
2.25287e-05
5.27361e-06
-2.51156e-05
4.8009e-05
3.40397e-05
2.11627e-05
-2.89198e-05
-7.34257e-05
2.16746e-05
3.48733e-05
1.42097e-06
-4.63352e-05
1.81724e-06
-1.65717e-05
5.22443e-05
1.92709e-05
-4.25105e-05
-9.05943e-05
6.88434e-06
2.94279e-05
9.43267e-06
3.90759e-05
-4.01766e-05
2.79779e-05
-3.30702e-05
9.02761e-05
1.87056e-05
2.19359e-05
-2.38945e-05
3.89216e-05
7.95075e-05
-1.42993e-06
-1.07868e-05
-4.31228e-05
-5.63422e-05
3.65557e-05
5.69143e-06
-2.97659e-05
3.18501e-05
-3.75103e-05
-1.97685e-05
6.36966e-05
5.06415e-05
-4.8059e-05
-4.18772e-05
-9.31229e-06
-2.63555e-05
-1.33655e-05
5.09443e-05
7.41072e-05
-1.38807e-05
-5.5213e-05
-6.02388e-05
2.25471e-05
4.01651e-05
-3.56467e-05
4.60856e-05
6.04027e-05
1.00418e-05
-2.72852e-05
-6.84019e-05
1.03841e-05
-3.90667e-05
-6.67312e-05
1.89326e-05
-3.86643e-05
-7.26085e-05
1.55341e-05
3.44657e-05
-9.18191e-06
-2.52387e-05
3.49992e-05
6.71941e-05
-7.81449e-06
-2.34849e-05
1.90872e-05
-3.45567e-05
-3.24624e-06
3.17624e-05
-4.33619e-05
-4.44569e-05
-1.29165e-05
6.19073e-05
-1.54719e-05
-1.92423e-05
-9.33651e-07
1.07796e-05
-2.67866e-05
6.43289e-05
6.28643e-07
3.16112e-05
-3.45438e-05
-2.02104e-05
3.29814e-05
-8.92975e-06
-5.33776e-05
-6.5838e-05
-1.97737e-05
2.38337e-06
3.65475e-05
8.3677e-06
-1.87824e-06
1.48291e-05
-2.75734e-05
4.24776e-05
2.79526e-05
9.69109e-05
6.65833e-05
1.94262e-05
1.45667e-05
-1.36638e-05
5.90177e-05
5.77699e-05
-3.533e-05
8.6556e-05
-1.88486e-05
-2.10225e-05
-5.39371e-05
1.12338e-05
-1.22987e-05
7.03164e-05
-1.07868e-05
6.14929e-06
5.7793e-05
3.4752e-05
-3.56393e-05
-5.85604e-06
4.38265e-05
2.99955e-05
1.48878e-05
3.09432e-06
-6.29971e-05
1.44143e-05
-9.34462e-05
4.1088e-05
-3.3416e-05
-7.29719e-05
6.78643e-06
-4.31375e-05
3.2606e-05
-5.40693e-05
-3.51892e-05
-7.38096e-06
-3.46785e-05
7.78155e-06
5.2859e-05
1.66986e-05
-1.61538e-06
7.61891e-05
-2.89595e-06
5.27899e-05
3.30997e-05
2.6905e-05
3.2012e-05
-4.14015e-05
-7.91216e-05
6.70378e-06
-3.71062e-05
3.38536e-07
3.1288e-05
2.55893e-05
4.62427e-05
-7.34429e-06
3.85572e-05
-1.82483e-05
8.604e-05
-3.51761e-05
-2.42107e-05
-2.44784e-05
3.96878e-05
3.9636e-05
-5.59562e-06
-1.59823e-05
5.26486e-05
-3.12827e-05
-9.51299e-06
1.32092e-05
3.03083e-05
4.01441e-05
-6.21302e-05
6.55768e-06
-4.02801e-05
7.68167e-05
-2.30572e-05
2.42691e-06
-2.36235e-05
-7.65722e-06
1.05565e-06
-7.58457e-05
1.89051e-05
4.24923e-05
2.73308e-06
-4.68803e-05
-0.000111356
2.3297e-05
1.92826e-05
1.66986e-06
4.11419e-05
-1.26257e-05
3.11423e-06
-2.15395e-05
-7.41892e-05
3.57796e-05
1.81666e-05
-4.43211e-05
1.38064e-05
2.49416e-05
-1.40066e-05
-5.45263e-05
-1.59671e-05
4.8483e-05
-4.49957e-06
-0.000139603
5.79738e-05
3.08058e-05
0.000100899
-3.72751e-05
3.82718e-05
1.96727e-05
-2.19464e-05
-3.16994e-05
-3.15026e-05
5.7979e-05
8.84751e-05
-9.06759e-06
-5.99887e-05
9.21846e-06
8.46409e-06
-1.88593e-08
-2.07848e-05
-3.90375e-05
0.000130275
-3.43216e-05
-4.70516e-05
5.37115e-05
-2.79653e-06
2.82296e-06
-3.79186e-05
-6.05411e-05
4.75418e-05
4.84359e-05
-1.75374e-05
3.74633e-05
-5.19099e-05
4.18177e-05
3.39493e-05
-6.99726e-05
2.7366e-05
3.88061e-05
1.67806e-05
-5.26783e-05
6.28694e-05
-2.19627e-05
-4.31011e-05
-7.40308e-06
-2.66794e-05
4.25463e-05
3.64985e-06
2.75733e-05
-4.7388e-05
-6.43742e-06
3.03095e-05
-2.263e-05
-8.19347e-05
-4.95827e-05
1.36233e-05
3.36369e-05
4.53525e-05
-3.78171e-05
6.72054e-05
-2.02063e-05
-6.23042e-05
4.74697e-05
4.62759e-05
1.24053e-05
3.82881e-05
2.15028e-05
5.87145e-05
-6.5e-05
-4.25662e-05
-1.3412e-05
4.39063e-05
4.78699e-05
-2.23202e-05
-6.0518e-05
1.98267e-06
-2.43727e-06
-3.00122e-05
1.48929e-05
2.92044e-05
7.28873e-05
7.06634e-05
-3.58248e-05
-0.000140627
2.58458e-05
1.2035e-06
-2.88258e-05
-4.69697e-05
5.7243e-05
3.12589e-05
1.75571e-05
-0.000107817
-1.5847e-05
1.13318e-05
3.99522e-05
3.28138e-05
-4.30108e-05
3.20361e-05
3.74876e-05
-3.91933e-05
2.83311e-05
3.71943e-05
-1.37143e-05
3.56368e-05
-5.4416e-05
8.30449e-05
3.03243e-05
-1.94274e-05
-2.67295e-05
6.84275e-05
4.12179e-05
-2.91597e-05
3.35348e-05
3.92136e-05
3.68367e-05
-3.48368e-05
-2.81511e-05
1.41672e-05
3.52948e-05
-7.15662e-05
-2.16156e-05
4.60048e-05
3.64989e-05
2.31861e-05
-3.12357e-05
-7.13486e-05
2.25479e-05
-3.52724e-05
7.69855e-05
-4.16432e-05
-1.37857e-05
7.45142e-05
-5.4067e-05
4.00399e-06
-1.77844e-05
-5.58048e-05
2.01229e-05
5.96012e-06
5.05819e-05
6.31162e-05
-6.58259e-05
8.14195e-05
-4.32238e-05
-2.44337e-05
2.67202e-05
4.39421e-06
9.56748e-06
7.65477e-06
4.39072e-06
-4.22164e-05
2.1703e-05
1.0128e-05
-1.56356e-05
-7.88141e-05
-2.79713e-05
-7.3316e-06
2.62833e-05
6.22892e-06
2.38394e-05
-8.0415e-06
5.26159e-05
3.00963e-05
-3.07956e-05
-8.68588e-05
1.14745e-05
3.87336e-05
1.11609e-05
-2.85617e-05
-9.12475e-06
-2.48186e-06
2.21184e-05
-3.22983e-06
2.53445e-05
2.25465e-05
3.20965e-05
-2.0874e-05
-3.06265e-06
6.05558e-06
-3.41388e-06
3.49667e-05
-2.44871e-05
5.34741e-05
1.96628e-05
1.27885e-05
-1.15681e-05
2.92525e-05
2.87057e-06
3.3959e-05
-1.87166e-05
-2.88629e-06
-6.90415e-05
2.46688e-05
-5.03834e-06
-1.26834e-05
2.05983e-05
-2.63393e-05
-2.6616e-06
-3.0247e-05
-7.38939e-05
-1.16541e-05
0.000124286
-9.67176e-05
2.30559e-05
4.08879e-05
1.12082e-05
1.89695e-05
2.29749e-05
-6.50403e-05
-1.85567e-05
-3.58942e-05
9.88739e-06
-2.25082e-05
-0.00011462
5.06442e-05
-0.000120174
-5.2155e-05
0.000129995
-2.8555e-05
-3.29317e-05
1.3981e-05
-3.08803e-06
-4.5842e-06
-6.87178e-05
5.00819e-07
2.5406e-05
-3.06808e-05
-4.83698e-05
-2.09832e-05
3.7746e-05
3.99079e-05
1.09904e-05
-3.37756e-05
2.43067e-05
4.91922e-05
4.58609e-05
-7.13919e-05
-6.57425e-05
-4.48683e-05
5.14662e-05
2.45101e-06
-1.54646e-06
-6.96707e-05
3.42145e-07
-1.04234e-05
6.89388e-06
-2.29041e-05
-2.35473e-06
-3.06215e-05
3.27413e-05
-3.22668e-06
-1.03372e-05
-2.52571e-05
2.84626e-05
9.52228e-05
-3.02617e-05
3.21711e-05
4.43818e-05
-4.54087e-05
-0.000101102
-3.30773e-05
0.00011101
6.25439e-05
-5.28279e-05
-0.000107186
-1.18128e-05
6.85668e-05
3.46118e-05
-5.40467e-05
-5.21375e-05
4.75175e-05
-4.06373e-05
-0.000119436
6.12027e-05
-1.8156e-05
-3.11728e-05
0.000105493
-4.54732e-05
-9.29439e-05
-5.38453e-05
9.50508e-06
-5.54988e-05
1.67228e-05
4.28199e-06
-7.23694e-05
6.52426e-06
4.59249e-05
6.77782e-06
-2.06637e-06
5.32223e-05
2.83379e-05
-3.75987e-05
-4.85512e-05
0.000104193
-1.62809e-05
-5.72763e-06
-2.96991e-05
-2.67255e-06
-4.58119e-05
8.22777e-06
-1.3111e-05
-4.38881e-05
-3.36708e-05
-5.49547e-05
4.80606e-05
-3.43908e-05
5.50936e-05
-3.26772e-05
-2.49943e-05
-9.60927e-06
3.26962e-05
-4.34383e-05
8.21741e-05
3.99025e-06
1.01074e-05
-2.64167e-05
-1.68569e-06
5.18318e-05
-5.05231e-05
7.65346e-05
-2.69972e-05
-2.84484e-05
5.25336e-06
1.91287e-05
5.75271e-05
-1.55072e-05
1.41476e-05
1.54793e-05
9.67543e-05
-2.60589e-05
2.79758e-06
-6.8649e-05
-4.36453e-06
5.3558e-06
-6.22706e-07
-1.12273e-05
2.76115e-05
-7.06451e-05
2.38866e-05
3.64636e-05
-5.86105e-06
-1.47319e-05
5.8536e-05
-1.46427e-06
5.05825e-07
-8.36363e-06
-6.68822e-05
-7.45873e-06
-5.66773e-05
5.4914e-05
-1.55686e-05
-6.51169e-05
1.93969e-05
-2.5009e-05
1.49552e-05
4.44499e-05
-8.87865e-06
-5.64917e-05
-7.07046e-05
-8.34174e-06
-2.963e-05
-2.15275e-06
-1.83212e-05
-1.89326e-06
-0.000102777
8.74826e-06
3.24819e-05
3.07966e-05
-0.000103662
-3.61558e-05
2.02422e-05
8.39113e-05
4.75242e-06
-1.3145e-05
3.19692e-05
7.1479e-07
-3.71364e-05
-7.51372e-05
-6.92119e-05
-2.21259e-06
-7.09703e-05
1.36718e-06
-4.37514e-05
5.21003e-05
-3.20331e-05
-2.11224e-05
9.38203e-06
-1.06124e-06
4.85091e-06
-2.59294e-05
5.72978e-05
-2.0384e-05
4.02207e-05
1.71228e-05
-4.36113e-05
4.79107e-06
-4.09898e-05
-3.49013e-07
2.30941e-05
-3.31623e-05
1.34477e-05
1.23587e-05
-2.6104e-05
-4.63814e-05
1.17685e-05
-4.40204e-05
0.000100773
4.16174e-05
5.95759e-05
5.72694e-06
3.63577e-06
3.72175e-05
-2.83869e-05
-2.65327e-05
-3.87037e-05
-3.32441e-05
-2.94554e-06
-4.83391e-06
-7.42386e-05
-9.2118e-05
-4.12923e-05
9.36047e-05
1.79684e-05
2.46144e-05
5.079e-05
-3.90919e-05
-4.86935e-05
-6.07772e-05
2.91867e-05
-7.01527e-05
2.39772e-05
5.71007e-05
1.43814e-05
-8.54449e-05
6.48922e-05
5.64102e-06
1.1501e-05
-0.000120717
5.33737e-05
7.36077e-05
5.39119e-06
1.38738e-05
1.18407e-05
-9.65141e-06
3.66956e-05
-3.03434e-05
4.71818e-05
6.17242e-05
-4.68059e-06
-4.04323e-05
-2.984e-05
4.83426e-06
-1.19174e-06
4.36945e-05
-1.84937e-06
-1.13773e-05
-1.70617e-05
7.82476e-05
-4.58397e-06
1.79143e-05
-3.62855e-05
-7.78639e-05
7.38348e-05
-9.19309e-05
-5.20796e-06
2.09289e-05
2.3063e-06
7.05892e-05
3.83812e-05
7.42101e-06
5.50146e-05
-1.01449e-05
4.60942e-05
-1.68375e-05
-5.88745e-05
-4.91901e-05
5.14215e-05
5.45882e-05
-1.98532e-05
5.81013e-05
3.02009e-05
1.38803e-05
2.24961e-05
6.25568e-05
6.90192e-06
-8.80085e-05
-1.34254e-05
-5.00749e-06
4.87005e-05
5.99247e-05
6.30917e-05
1.42655e-06
2.14427e-05
-2.66379e-05
-9.90392e-06
-6.22042e-05
-1.60277e-05
3.25949e-05
-3.85359e-05
-1.9041e-05
5.31541e-05
-2.28165e-05
1.54098e-05
-4.23553e-05
-5.64964e-07
-5.11481e-05
-1.07912e-05
-0.000114607
2.0634e-05
1.91701e-05
7.28545e-05
2.73276e-05
-4.94909e-05
5.05785e-05
5.27875e-05
6.41991e-05
-7.99063e-06
4.43968e-05
-4.86516e-05
-2.58863e-05
-3.12891e-05
9.76645e-05
-4.46028e-05
-4.87096e-05
2.70444e-05
-5.04586e-05
1.36553e-05
-9.01836e-05
-0.000131356
6.04794e-05
5.67491e-05
-1.70094e-05
2.47726e-05
-9.10833e-06
5.16702e-05
-8.06587e-05
3.82912e-05
3.7835e-05
1.59073e-05
-7.97561e-06
-6.65477e-06
3.57418e-05
3.13771e-05
-9.32615e-05
-4.72952e-05
-9.38082e-05
-4.97692e-05
6.84744e-05
-3.54392e-05
9.14535e-06
-3.66226e-05
3.87211e-05
1.69347e-05
4.47609e-05
-5.40498e-05
2.94941e-05
6.61321e-05
1.22408e-05
-6.64293e-05
1.13354e-06
1.48166e-05
-1.3693e-05
6.08948e-05
-9.09204e-07
7.89306e-05
9.09704e-06
5.26162e-05
-9.66368e-05
3.41132e-05
6.60587e-06
-1.27823e-05
-4.43456e-05
-2.06706e-05
3.15066e-06
-9.30624e-07
-6.30612e-05
-0.000100799
-4.15873e-05
-9.15085e-05
-4.81865e-05
5.62917e-05
-1.52455e-05
-5.22907e-05
-2.41199e-05
-1.08294e-05
-4.57693e-05
-4.23091e-05
1.19053e-05
2.83609e-05
-1.41363e-05
-5.28246e-05
-6.13478e-05
1.77324e-05
1.07328e-05
-2.08277e-05
5.9631e-05
1.79047e-06
2.51199e-05
-2.36352e-05
5.88674e-05
3.18964e-05
4.76103e-05
-7.31896e-05
7.22464e-05
-0.000100922
-6.24091e-06
6.49309e-05
8.48912e-06
3.23069e-05
-3.30701e-06
-4.32205e-05
2.37767e-06
1.99972e-05
-1.2729e-05
9.59355e-06
3.61403e-05
2.75425e-05
6.92133e-05
-2.72435e-06
-6.3224e-05
-6.14556e-06
-7.61054e-06
-1.02111e-05
4.4503e-05
5.20109e-06
2.67306e-05
-6.62985e-06
-4.79829e-06
-2.94796e-05
1.43549e-05
5.68992e-06
6.79193e-05
9.01218e-06
3.43912e-05
1.84248e-05
1.29043e-05
-4.46518e-05
3.45934e-05
3.36552e-05
1.93866e-06
-1.88097e-05
4.46873e-05
-5.23891e-05
6.75361e-05
7.74649e-05
6.37188e-06
8.13846e-05
-3.1811e-05
2.2067e-05
-1.73564e-05
-2.87803e-05
-6.86578e-05
1.19238e-05
2.47906e-05
1.23703e-05
-3.48674e-05
2.16776e-05
-2.20751e-05
-3.52482e-06
1.23348e-05
1.70921e-06
2.97127e-05
-6.88564e-05
-1.33737e-05
9.1896e-05
-3.43519e-05
1.47284e-05
-1.23634e-05
4.94565e-05
2.42064e-05
-4.44674e-05
5.05936e-05
0.000106778
9.66929e-05
6.52506e-05
8.89995e-07
-7.20657e-06
-1.14564e-05
6.66906e-05
-5.44765e-06
4.01794e-05
-2.3398e-05
4.17558e-05
-3.41274e-05
-2.13977e-05
6.28061e-06
-2.62642e-05
3.5821e-05
-8.93138e-05
4.69468e-05
-3.57558e-05
3.30248e-05
2.34642e-05
-9.97114e-05
2.21336e-05
3.57018e-05
-1.87462e-05
2.13259e-05
-6.78239e-05
2.71616e-05
-5.16975e-05
5.68145e-05
4.88438e-05
-1.74801e-05
3.80414e-05
4.54168e-05
1.17881e-05
-8.37957e-06
2.07493e-05
-2.05648e-05
5.28251e-05
-7.57062e-05
-4.26272e-05
-7.67247e-06
2.04986e-05
-1.54354e-05
-3.1233e-05
1.17399e-05
6.21646e-05
4.88081e-05
4.33601e-06
-0.00012757
-5.02235e-05
-6.86678e-05
-6.60997e-05
3.09136e-05
7.61501e-05
-7.01358e-05
-7.02997e-06
9.28505e-06
4.82404e-05
3.84031e-06
8.47282e-06
-6.75761e-05
-1.85829e-05
1.21741e-05
-8.66759e-06
-3.19517e-05
-1.42831e-05
3.18349e-06
7.33044e-06
1.82412e-05
2.56517e-05
-6.78841e-05
-4.71424e-06
3.49284e-05
-5.05331e-05
1.07933e-05
-1.5015e-05
-1.63049e-05
-2.95391e-05
9.53889e-05
2.63903e-05
-1.76691e-05
-2.15017e-05
-1.27988e-05
8.03289e-06
-1.3581e-05
2.63904e-05
-7.18527e-06
-1.90847e-05
2.17275e-05
5.39332e-05
-9.03434e-05
5.79043e-05
-1.44775e-05
-1.46053e-05
-3.8323e-05
-4.54382e-05
2.61615e-05
5.74816e-05
2.07163e-05
1.80588e-05
2.61943e-05
-7.22124e-06
-2.65972e-05
2.38711e-05
-3.81793e-05
-3.29993e-05
2.86612e-05
4.19584e-06
5.34139e-05
-1.29018e-05
-4.54613e-06
9.10495e-05
1.63318e-05
1.69139e-05
-4.6327e-05
3.55744e-05
-3.91715e-05
2.29462e-05
1.72227e-05
3.08629e-06
6.80587e-05
6.72806e-05
-1.70234e-05
-7.54674e-06
4.55866e-05
-1.23878e-05
-6.61286e-06
0.000122596
3.26278e-05
1.82127e-05
2.49492e-05
-5.22538e-05
-2.22393e-05
-5.70165e-05
1.30443e-06
7.68993e-06
2.41783e-05
1.07718e-05
-5.20686e-05
1.76702e-05
6.44929e-05
-6.11881e-05
5.4407e-05
-4.49319e-05
-7.05202e-05
6.23171e-06
3.27921e-05
4.70877e-05
1.32772e-06
1.32956e-05
-7.78602e-05
-2.81832e-05
-6.89283e-06
0.000112602
3.68481e-05
-3.34252e-05
4.85623e-05
3.18348e-05
1.14888e-05
6.94895e-05
0.00013327
-7.38587e-05
-4.20366e-05
-1.68966e-05
2.04109e-05
8.13289e-06
-1.9554e-05
3.47551e-05
5.05915e-05
-6.30396e-05
-4.22688e-05
1.79628e-05
5.70347e-05
-6.66711e-07
2.83979e-05
-3.47795e-05
-8.23163e-05
-3.16931e-05
-5.51024e-05
-1.69487e-05
6.43998e-05
-5.57762e-05
5.25212e-05
-0.000112341
-7.10643e-05
-1.52236e-05
-1.60271e-05
-3.59304e-05
5.28323e-05
4.40277e-05
-4.75498e-06
-6.05783e-05
-2.03251e-05
1.72128e-05
2.4091e-05
-2.15004e-05
-3.80279e-05
1.84211e-05
-5.22969e-05
-1.48043e-05
-9.04261e-05
-1.86126e-05
-1.40982e-05
0.000121307
-2.54702e-05
5.25204e-05
3.79472e-05
3.11938e-05
-3.85309e-05
-5.10213e-06
-4.49658e-05
2.62951e-05
1.1243e-05
-1.86055e-05
1.74425e-05
-3.76215e-05
8.71113e-06
-3.17955e-05
7.14653e-05
-7.47015e-05
0.000101809
5.19645e-05
3.18054e-05
1.94155e-05
4.63661e-05
-3.00445e-06
1.62401e-05
7.99991e-05
3.67593e-06
-1.37994e-05
-5.2109e-05
-5.62188e-05
2.68223e-05
-3.78023e-05
-4.78228e-05
2.88626e-05
-2.68997e-05
-1.16542e-05
-5.02806e-05
3.10766e-05
-2.00592e-05
3.81088e-05
-8.71737e-05
-4.69049e-05
1.67193e-05
4.92434e-05
9.12743e-06
1.42585e-06
-6.69421e-05
-7.27302e-05
-1.43615e-05
-9.74513e-06
-1.56978e-05
2.6738e-05
-9.2122e-05
-5.88647e-05
-1.25878e-05
5.10603e-05
-8.97491e-05
7.86016e-05
1.309e-05
1.51688e-05
-0.000114672
-4.19709e-05
1.06478e-05
8.84157e-05
-6.7536e-06
-6.93044e-06
1.08083e-05
-9.15194e-05
-1.49588e-05
1.0779e-05
5.1809e-05
-3.28287e-05
4.25932e-05
9.43081e-06
7.85571e-07
4.03608e-05
-3.83519e-06
2.66727e-05
-2.21876e-05
6.11064e-07
2.16404e-06
1.83089e-05
-2.01639e-05
-7.5235e-05
-8.20158e-05
-4.08833e-05
3.0688e-05
3.11449e-05
-1.76034e-05
-1.14894e-05
3.87504e-05
9.27434e-06
1.17533e-05
-4.44874e-05
-5.2748e-05
-4.26519e-05
9.6072e-05
-3.9106e-05
-6.17569e-05
-4.51249e-05
4.72006e-06
-4.15777e-05
-1.74786e-06
2.57661e-05
4.8114e-05
-3.50769e-05
2.89143e-05
3.42636e-05
2.19485e-05
-2.03153e-05
-2.84294e-05
2.95849e-05
6.23256e-05
1.81493e-05
-1.77097e-05
-4.22895e-05
-3.51807e-06
6.32218e-05
3.54694e-06
7.63219e-06
-5.29387e-06
1.01703e-05
2.74981e-05
2.91369e-05
-2.60759e-05
-5.97403e-05
8.6788e-05
3.29314e-05
-1.45725e-05
-1.42369e-05
5.72903e-05
3.84357e-06
9.81886e-05
0.000121367
-2.85932e-05
2.49983e-05
7.87177e-06
-1.86721e-05
-1.70151e-05
-7.32377e-05
0.00011208
-1.25971e-05
-6.01781e-05
7.86234e-06
3.08844e-05
9.78378e-06
7.8408e-06
1.71367e-05
4.86616e-08
-2.67226e-05
-2.56809e-05
-4.13362e-05
-4.55834e-05
-1.76242e-05
-7.76583e-06
-4.82693e-05
7.13977e-05
1.64246e-05
3.01736e-05
-3.19597e-05
1.39845e-05
-1.39403e-05
-1.55894e-05
4.47663e-06
-1.65856e-05
8.27656e-05
5.56016e-05
5.67257e-06
3.54119e-05
2.86207e-06
-1.63058e-05
2.07489e-05
9.63174e-06
-1.4501e-05
-4.88881e-05
-4.07482e-05
-9.69204e-06
4.12576e-05
-2.15806e-05
-3.41526e-05
5.64965e-05
-1.37321e-05
-5.04198e-05
3.84744e-05
-2.33629e-05
-1.19593e-06
-5.94469e-05
5.9522e-06
6.40078e-05
-7.39724e-05
-2.23716e-05
-4.28874e-06
-7.43156e-05
-1.58101e-05
5.60061e-05
-2.41022e-05
5.20151e-05
4.58722e-05
-3.16426e-05
0.000122277
2.89961e-05
1.20705e-05
-2.74094e-05
-3.44682e-05
-3.20196e-05
5.98461e-05
4.27909e-05
-2.54267e-05
-1.62858e-05
4.25267e-05
4.55978e-05
-7.08047e-05
-4.53842e-05
-1.75916e-05
6.00135e-05
3.70801e-05
4.3697e-05
-7.64499e-06
2.17553e-05
1.48437e-05
1.4781e-05
3.49521e-05
1.44989e-05
-7.17352e-05
5.90791e-05
3.93533e-05
-1.62122e-05
4.7453e-05
-1.84565e-05
-3.84232e-05
8.4609e-05
5.78987e-05
5.29933e-05
-2.8294e-05
-1.40264e-05
-3.38175e-06
6.56866e-05
1.70163e-05
1.81667e-05
-1.45182e-05
-3.22158e-05
8.30216e-06
5.70647e-05
3.72084e-05
6.89615e-05
3.92867e-05
3.07865e-05
-1.59347e-05
4.17501e-05
8.47294e-06
-3.21822e-05
-1.07556e-05
-1.45924e-05
5.39316e-05
1.21889e-05
2.11241e-05
-2.64748e-05
1.12988e-05
-2.39075e-05
-1.44508e-05
1.09978e-05
-7.73487e-06
4.69072e-06
1.68592e-05
6.67052e-05
1.57992e-05
-0.000107579
-8.24991e-05
6.52298e-06
-5.85073e-05
5.17319e-05
1.84857e-05
1.66774e-05
-7.07682e-05
5.68538e-06
-1.86226e-05
-4.33435e-05
5.83282e-05
-4.15355e-05
-7.76739e-05
-1.33212e-05
-3.74747e-05
-1.09989e-06
5.06304e-05
3.43451e-05
5.21396e-05
2.95318e-05
4.71442e-05
-2.02373e-05
0.000134813
5.51655e-05
-3.82704e-05
-1.1222e-05
0.000111733
1.12818e-06
-1.38336e-05
-2.07325e-05
-1.0534e-05
5.75138e-06
2.51085e-05
-6.47181e-05
1.22248e-06
0.00011825
2.02323e-05
-6.96788e-05
-8.3458e-05
9.06893e-05
4.29546e-05
-6.09936e-05
-2.33576e-06
4.5239e-06
-2.48618e-05
-7.49836e-05
-6.30086e-06
3.39791e-05
6.28866e-05
-2.65869e-06
-2.97546e-05
-6.67732e-05
-1.08309e-05
7.42322e-06
3.03184e-05
-1.26917e-05
1.26475e-05
-3.24748e-05
-1.54033e-05
4.65956e-05
-6.06407e-07
-7.33234e-05
-3.61167e-05
3.19346e-05
5.07124e-05
5.52054e-05
-3.86611e-05
-2.71015e-05
-1.73191e-06
4.0044e-05
-1.28825e-05
1.1524e-05
2.75385e-05
1.51001e-05
2.02362e-05
3.27814e-05
-0.000103583
-2.37203e-05
5.62994e-05
-3.5605e-05
-8.56412e-05
0.000101617
-2.90696e-05
2.1579e-05
-5.19508e-05
6.29318e-06
-5.95588e-05
3.80189e-06
-4.01151e-05
2.21787e-05
-9.73826e-06
6.35826e-05
-2.76126e-05
-2.5439e-05
9.06729e-05
-5.55881e-05
-3.51446e-05
1.47806e-05
-2.30942e-05
3.46855e-05
-4.10146e-05
-1.09314e-05
2.98412e-05
3.45645e-05
-4.78459e-05
-5.78745e-05
-3.72984e-05
3.58624e-05
-1.02355e-05
-1.76758e-05
3.83474e-05
4.55021e-06
-3.07262e-05
-6.31749e-05
6.19085e-06
-5.68883e-05
0.000120349
-0.000117729
-6.80869e-05
1.01872e-05
-1.02157e-05
2.82164e-05
-1.96022e-05
-6.25628e-06
3.50748e-05
9.93162e-06
-5.96484e-05
5.40578e-05
-2.97583e-05
-7.26199e-07
-9.39099e-06
-2.64805e-05
5.89007e-05
9.35839e-05
7.95012e-05
-1.68924e-05
-6.82932e-05
-7.77037e-05
4.75631e-05
-1.31782e-06
1.17446e-05
5.1631e-05
-6.31509e-05
2.2143e-05
3.45723e-05
-3.89622e-05
4.92726e-05
9.85363e-06
-2.73692e-05
-7.18009e-05
-2.20758e-06
9.41218e-06
5.68595e-05
-2.01404e-05
-8.62195e-06
7.08993e-06
9.5705e-07
-2.9198e-05
-3.67723e-05
9.86736e-07
-7.08317e-06
-7.77077e-05
4.07128e-05
2.28041e-05
-2.33535e-05
-2.82727e-05
6.35616e-06
-3.10614e-05
-2.3779e-05
5.87647e-05
3.77756e-05
-8.88547e-05
1.88749e-05
2.82157e-05
2.42064e-05
-1.97268e-05
3.13716e-05
2.67718e-05
-2.78917e-05
-1.14414e-05
4.39791e-05
-1.84717e-05
6.28969e-06
-9.41637e-06
3.67078e-05
-1.65387e-05
-2.21911e-05
-3.26346e-05
2.11542e-05
-9.05297e-05
-2.25266e-05
7.17817e-06
-1.67805e-05
-5.1295e-05
-4.1527e-05
3.02586e-05
1.87582e-05
1.34519e-05
6.79969e-05
0.000103677
-2.68701e-05
-5.62221e-05
-7.36886e-06
-8.72917e-06
-8.22102e-06
-0.000119191
3.07659e-05
9.97073e-05
7.9355e-05
2.35229e-05
2.89525e-06
3.23559e-05
6.61926e-06
-1.27405e-05
-1.12371e-05
3.50154e-06
6.08945e-05
-6.73486e-06
5.99328e-05
-9.10799e-06
-4.9344e-05
-1.25016e-05
-1.79207e-05
3.41781e-05
-3.37977e-05
7.3954e-06
5.9454e-05
0.000102923
1.58965e-05
2.07394e-06
6.60843e-05
-5.4953e-05
-6.42206e-05
4.83624e-06
5.86052e-05
-3.53623e-05
-0.000113619
-3.21863e-05
8.25233e-06
3.03728e-05
4.09456e-06
1.25882e-05
-2.57907e-05
4.0296e-06
-1.99421e-05
-0.000115459
-8.30356e-06
2.34321e-05
1.67681e-05
-9.89949e-06
-1.77941e-05
3.41065e-05
5.38381e-05
-8.89879e-07
-3.26856e-05
-1.44832e-05
1.08394e-05
2.86296e-05
1.41959e-05
-1.13216e-05
4.36334e-05
-9.70031e-06
4.36594e-05
-6.26035e-06
-6.49595e-05
8.33396e-05
7.37351e-06
-2.3359e-05
-5.29964e-05
8.2195e-06
-7.67082e-05
-5.47339e-05
1.69979e-05
-2.35285e-05
6.93037e-05
-5.89242e-05
-1.58966e-05
-3.79712e-06
-4.3655e-05
1.74972e-06
6.90855e-06
-1.56339e-05
-1.26814e-05
-6.31355e-06
-2.87474e-05
6.35842e-05
-1.27362e-05
2.98872e-05
-1.94589e-05
0.000106661
-6.87316e-05
2.64298e-06
7.97828e-05
-7.28981e-05
-2.11626e-05
-1.82958e-06
-5.65453e-06
-3.0719e-05
-1.6659e-07
6.13109e-05
-4.53605e-05
-3.93693e-06
2.74236e-05
5.10007e-05
6.3011e-06
2.15231e-05
-5.93152e-05
-4.52383e-05
-4.56915e-05
-4.39744e-05
-2.38923e-05
-5.03429e-05
-2.24276e-05
-6.28908e-05
1.11951e-05
0.000117078
1.08846e-05
1.60362e-06
7.11577e-06
-1.24831e-05
-9.79612e-05
1.1728e-05
-2.4335e-05
-6.52868e-05
-4.5734e-05
9.77493e-05
-2.84509e-05
2.46853e-05
2.89713e-05
-3.39508e-05
9.19258e-05
-5.06381e-05
-3.13987e-05
4.17582e-07
2.26257e-05
5.23945e-05
-4.63503e-05
3.01958e-06
-7.25875e-05
3.62427e-05
4.53796e-05
5.10274e-05
4.96123e-05
1.14619e-05
6.31437e-06
1.38571e-05
1.41456e-06
1.35624e-05
-5.94297e-05
-5.2609e-05
-3.14449e-05
3.68989e-05
-1.13097e-06
4.39375e-06
1.65979e-05
1.011e-05
-4.56733e-05
-5.6707e-05
-2.16053e-05
3.75416e-06
3.02106e-05
2.47174e-05
-3.7055e-05
-4.6816e-05
-8.03266e-05
-3.89206e-05
8.46451e-05
4.35191e-05
1.98972e-05
-8.17538e-06
-6.95745e-06
-5.38756e-05
3.5844e-05
-6.18509e-05
7.90425e-05
-1.59479e-05
-3.99172e-05
-6.26172e-05
3.51223e-05
5.15336e-05
1.97045e-06
-3.47081e-06
-9.95002e-06
5.45721e-05
-4.35944e-05
-3.20033e-05
3.58499e-05
-2.33699e-05
-7.19365e-06
3.16271e-05
-2.36784e-05
4.79079e-05
6.11597e-05
-1.5019e-05
5.83362e-05
-1.60111e-05
-5.55501e-05
-4.11181e-05
3.92958e-05
8.73667e-05
-9.01846e-06
2.39065e-05
5.31235e-05
-2.11783e-06
3.75924e-05
-6.11142e-05
-5.37819e-05
4.7565e-05
-2.97432e-05
-7.41601e-05
-1.30142e-05
3.8289e-06
-4.959e-05
-1.00628e-05
1.48062e-05
3.36766e-06
-4.7756e-05
-3.26618e-05
4.78001e-06
4.40959e-05
4.04309e-05
-4.65774e-05
-4.65791e-05
9.95409e-06
6.581e-05
1.77751e-05
-1.76016e-05
-0.000102062
4.74702e-05
-2.01662e-05
-7.77561e-06
-8.7989e-06
4.50332e-05
-5.59189e-06
-5.70056e-05
-1.93107e-05
-3.39667e-05
4.75907e-05
2.16512e-05
-2.22095e-05
-2.47788e-05
-2.54153e-05
-5.89085e-06
-1.1566e-05
-4.13185e-05
-4.02362e-05
1.2063e-06
-4.48258e-05
2.04254e-05
3.38082e-06
-2.82914e-05
3.01644e-05
9.34815e-06
-6.713e-05
-4.05735e-05
7.09331e-05
-3.3956e-05
-2.67513e-05
2.17735e-05
1.56357e-05
1.44399e-05
-8.90193e-06
-1.19938e-05
1.44322e-05
8.70276e-05
-9.6974e-07
1.24227e-05
-5.5928e-05
-1.92774e-05
3.90813e-05
3.06987e-06
-4.05496e-05
7.56618e-06
6.72853e-05
3.94988e-05
-7.47546e-05
-3.48643e-05
2.46889e-05
-5.16156e-05
3.76697e-06
-4.0855e-05
-1.83193e-05
8.32828e-05
-3.53501e-05
-3.56364e-05
-9.10205e-06
-2.37033e-05
-7.6158e-05
-4.3174e-05
-3.44522e-05
3.03321e-05
-5.93208e-05
-4.43425e-05
-1.38483e-05
2.80144e-05
4.43452e-05
7.11204e-06
-4.18397e-07
-3.37955e-05
5.6317e-05
4.62115e-05
-7.51624e-05
0.000106831
-4.85464e-05
-1.38162e-05
-8.41334e-07