# vtk DataFile Version 1.0
Net Charge Density
ASCII
DATASET STRUCTURED_POINTS
DIMENSIONS 256 128 1
ORIGIN 0 0 0
SPACING 0.15625 0.15625 1
POINT_DATA 32768
SCALARS rhonet float
LOOKUP_TABLE default
-3.89607e-06
-9.51278e-05
0.000144792
9.6322e-05
3.56839e-05
0.000120451
-0.000118445
9.18584e-05
0.000154216
2.28996e-05
-3.75608e-05
0.000108725
0.00010382
7.94459e-05
0.000109346
4.99606e-05
8.77427e-05
0.000140236
4.05881e-05
-6.79099e-05
-6.40657e-06
0.000141859
0.000144767
4.77822e-05
3.72683e-05
2.07426e-05
7.74212e-05
9.05888e-05
-1.3522e-05
-7.27427e-05
5.23024e-05
3.97237e-05
4.36689e-05
6.90079e-05
1.24413e-05
0.000171713
1.68071e-05
7.28726e-05
7.73576e-05
-5.53066e-06
2.2932e-05
6.83207e-06
0.000136404
9.3981e-05
2.0939e-05
1.8683e-05
-3.16134e-05
6.95549e-05
0.000116214
7.8872e-05
-1.20078e-05
2.49783e-05
8.34425e-05
0.000148996
3.55954e-05
1.75043e-05
0.000151011
-5.17473e-05
5.67827e-06
7.16955e-05
5.02797e-05
6.06023e-05
7.16804e-06
8.01802e-05
8.22488e-05
-8.03833e-05
4.41822e-05
0.000136176
4.09957e-05
4.8283e-05
7.92339e-05
3.67108e-05
-2.69162e-05
4.96672e-05
-1.15018e-07
5.11556e-05
4.20858e-05
-3.8308e-05
9.21622e-05
0.000106615
8.71841e-05
2.54083e-05
7.49619e-05
0.000101106
4.54682e-05
-4.48001e-06
-1.66916e-05
6.70484e-05
0.000119669
-2.3488e-05
9.00027e-05
-1.47957e-05
-3.90525e-05
-6.21437e-06
-8.99174e-05
5.22716e-05
0.000157962
2.4098e-05
9.1688e-05
-2.49445e-05
0.000157723
9.0919e-05
-3.16917e-06
9.47256e-05
3.90381e-05
0.00013097
-2.58442e-07
-6.85493e-05
2.66265e-06
7.39993e-05
0.00013342
5.79279e-05
2.02986e-05
3.31153e-05
8.0421e-05
4.36594e-05
1.22659e-05
7.4969e-05
5.09605e-05
4.32275e-05
-3.98803e-05
-3.45634e-05
4.04445e-05
2.44895e-05
0.00011572
6.60873e-05
1.82546e-05
8.13092e-05
1.99643e-05
-1.88103e-05
0.000119797
9.26161e-05
-2.24414e-06
3.77486e-05
2.03244e-05
6.79679e-06
4.4609e-05
-3.19163e-05
4.68962e-05
-1.15028e-05
-4.98403e-05
2.32954e-05
2.09626e-05
0.000160761
9.88222e-05
2.06404e-06
0.000137836
1.15243e-05
-3.11241e-05
0.000132419
1.7827e-05
2.9132e-05
0.000108428
-8.34512e-06
3.45047e-05
4.32305e-05
5.74661e-06
3.42713e-05
-5.27606e-06
1.75425e-05
7.67774e-05
2.50086e-05
0.000112709
-2.20693e-05
3.25849e-05
2.55231e-05
5.84617e-05
-6.12722e-05
0.000105448
0.000137295
2.50293e-05
4.32238e-05
7.45821e-05
0.000111579
-2.0268e-05
-8.13336e-06
8.72932e-05
-8.23219e-05
1.15582e-05
3.3181e-05
8.87692e-05
-7.06e-05
-3.18112e-05
5.65359e-06
1.04989e-05
7.98532e-05
4.14203e-05
7.20929e-05
0.000102554
7.46853e-05
2.48844e-05
0.000198125
8.16124e-05
-6.56993e-05
6.24195e-05
0.000201229
4.75221e-05
8.32758e-05
7.86674e-05
-1.63089e-05
5.95988e-05
0.00014917
4.39015e-05
3.83356e-05
-1.00756e-05
6.97708e-05
-5.9888e-05
5.34232e-05
6.86803e-05
8.57909e-05
6.81023e-05
0.000137439
0.000106096
-2.40523e-05
0.000111081
-0.000131281
0.000102691
9.90946e-05
-5.28726e-05
-3.79212e-05
8.69745e-05
0.000114878
0.000176991
3.40524e-05
7.95298e-05
5.67451e-05
-3.69137e-05
-1.514e-05
8.69033e-05
6.86069e-05
6.22822e-06
4.16541e-05
2.36378e-05
2.60696e-05
0.000121307
-3.557e-05
-2.05772e-05
2.75011e-05
5.94517e-05
8.97911e-06
1.84993e-05
8.66943e-05
-5.82663e-05
-3.07104e-07
2.65902e-05
-1.44094e-05
-2.21964e-05
-3.95461e-05
0.000128655
-4.29642e-06
2.10488e-05
-3.85129e-05
0.000102293
2.14379e-05
2.40526e-05
4.18614e-05
-0.000104899
2.47047e-05
-6.30285e-05
-2.51196e-05
-2.38866e-05
5.12262e-05
-2.60444e-05
-7.57633e-05
4.98928e-05
-6.60464e-05
-4.28997e-05
2.3341e-05
-5.99087e-05
-8.0273e-05
3.00235e-06
-4.24262e-05
4.66208e-06
1.08914e-05
-2.15755e-05
-4.06103e-06
-5.82073e-05
-6.74936e-05
-0.000106138
-1.792e-05
-2.00458e-05
-5.72714e-05
-2.52763e-05
7.72986e-06
-3.0741e-05
-8.5387e-05
-3.5389e-05
-8.36118e-06
2.7442e-05
-7.95685e-05
-6.67486e-05
2.31334e-05
-0.000103178
-3.37883e-05
1.98341e-05
-8.20333e-05
-5.15861e-05
-4.38411e-05
8.67294e-06
3.55998e-05
-2.47129e-05
4.87408e-06
-0.000112384
-3.15168e-05
3.88797e-05
-3.39411e-05
-6.56133e-05
-4.11927e-05
-3.17378e-05
2.98228e-05
-2.85322e-05
-3.54564e-05
-2.34868e-05
-0.00011611
1.48108e-05
-3.37937e-05
4.56305e-05
-5.12685e-05
-5.72854e-05
-3.73459e-05
-3.01475e-05
-6.05668e-05
-1.00284e-05
-7.96346e-05
-0.000109192
1.21045e-05
-4.39817e-05
9.0173e-06
-1.84358e-05
1.72418e-05
-5.13537e-05
-1.04338e-05
4.76097e-05
-2.54941e-05
5.74087e-05
2.16416e-07
-3.2412e-05
-5.0444e-05
-8.2256e-05
2.84829e-05
2.44661e-05
-6.16943e-05
-0.000158637
-4.16976e-05
-6.51926e-08
-1.69135e-05
8.77341e-06
5.33129e-05
3.15625e-06
-1.07944e-05
2.47145e-05
-5.96582e-06
3.43233e-05
-2.73115e-05
-6.84755e-06
-1.89501e-06
-4.36435e-05
-0.000106618
-3.96514e-05
-2.96776e-05
-3.55598e-05
1.64219e-05
-5.91243e-05
-4.27187e-05
-1.06695e-06
-5.99958e-06
5.43523e-05
-3.54238e-05
-7.13798e-05
-7.13185e-05
4.017e-05
1.15475e-05
-5.23519e-05
-1.11543e-05
9.64513e-06
3.18992e-05
-8.5775e-05
1.39619e-05
-6.13794e-05
-7.74139e-06
-3.48631e-05
-1.67098e-05
-4.55659e-05
-6.96029e-05
1.70243e-05
-4.88102e-05
-2.0797e-05
1.59815e-05
-1.05532e-05
-2.35448e-05
-1.24411e-05
-3.31041e-05
-4.60127e-05
-1.33578e-05
-4.22457e-05
-8.323e-06
-5.94477e-05
-7.82581e-05
8.69716e-06
-2.01957e-06
-8.38251e-05
1.05491e-05
-3.22358e-05
-4.3676e-05
-0.000117681
-8.72603e-06
-3.99579e-05
-3.83072e-05
-7.16751e-05
9.37108e-06
3.00056e-05
-1.70404e-05
-2.39995e-05
-1.85601e-06
-5.11223e-05
-2.02563e-05
-8.1348e-05
-6.40947e-05
3.62428e-05
-8.02717e-05
-7.56327e-06
2.37464e-05
2.21165e-05
-5.27813e-05
-2.42481e-06
3.60704e-05
-9.46564e-05
1.02371e-05
-2.21478e-05
3.97032e-05
-4.13512e-05
-2.55478e-05
-5.70086e-06
3.04062e-05
-6.90704e-05
-4.77671e-05
3.67507e-05
-4.79631e-06
2.05927e-06
-4.86571e-05
-0.000107547
-6.6024e-05
-2.66002e-05
-2.24792e-05
-9.33022e-06
-1.88573e-05
-0.000101449
6.3224e-06
3.69593e-05
4.61098e-06
-1.0849e-05
-2.3655e-05
-8.50845e-05
-3.90906e-05
4.81101e-05
-6.97677e-06
-7.51885e-05
-6.46273e-05
-4.379e-05
3.07562e-05
-5.53508e-05
1.83098e-06
-5.12165e-05
9.71677e-05
1.17971e-05
-4.14068e-05
-5.22409e-05
-4.84001e-05
-4.73994e-05
3.21253e-05
-3.50827e-05
-7.29868e-05
1.69792e-06
-2.53869e-05
-1.98883e-05
4.5062e-06
-1.73202e-05
7.05677e-05
5.7089e-05
-6.70669e-05
-3.48981e-05
-2.73383e-05
-7.02048e-05
-2.06063e-05
2.42677e-05
8.58865e-05
-8.70349e-05
6.93474e-06
-4.34535e-05
-3.62697e-05
6.90324e-05
3.75888e-05
-6.27587e-05
-4.99166e-06
2.55418e-05
-5.11217e-05
2.26247e-05
-1.34831e-05
-4.8021e-05
-1.98242e-05
3.05439e-06
3.73246e-05
3.42681e-05
-1.23485e-05
-2.31675e-05
-0.000132199
-1.6694e-07
-7.60634e-06
5.12586e-05
-7.35302e-06
-7.36316e-05
5.01703e-06
-3.30427e-05
-1.99117e-06
5.00253e-05
-7.79773e-06
-2.33894e-05
-8.48027e-06
1.05402e-06
-1.92298e-05
7.13237e-05
-5.15229e-05
7.82218e-06
3.11628e-05
6.53436e-05
-4.67903e-05
-2.90638e-05
-1.14905e-05
-2.49572e-05
-9.34284e-05
-2.04815e-05
3.51593e-05
4.88631e-05
3.64077e-05
-1.64525e-05
3.77698e-05
6.1458e-05
-4.75242e-05
4.4845e-05
4.40084e-05
9.82312e-06
-5.10868e-05
1.2307e-05
2.34443e-05
7.0431e-05
4.96684e-05
-3.57146e-05
2.25292e-05
5.27396e-06
-2.51159e-05
4.8009e-05
3.40401e-05
2.11631e-05
-2.89202e-05
-7.34266e-05
2.16751e-05
3.48728e-05
1.42085e-06
-4.63355e-05
1.81724e-06
-1.65713e-05
5.22439e-05
1.92712e-05
-4.25102e-05
-9.05942e-05
6.88434e-06
2.94285e-05
9.4329e-06
3.90761e-05
-4.0176e-05
2.79773e-05
-3.30703e-05
9.02766e-05
1.87056e-05
2.19354e-05
-2.38944e-05
3.89217e-05
7.95071e-05
-1.42981e-06
-1.07867e-05
-4.3123e-05
-5.6342e-05
3.65555e-05
5.69178e-06
-2.97661e-05
3.185e-05
-3.75104e-05
-1.97685e-05
6.36958e-05
5.06412e-05
-4.80588e-05
-4.18769e-05
-9.31264e-06
-2.63555e-05
-1.33656e-05
5.09447e-05
7.41069e-05
-1.38809e-05
-5.52125e-05
-6.02389e-05
2.25474e-05
4.01649e-05
-3.5647e-05
4.6086e-05
6.04023e-05
1.00423e-05
-2.72853e-05
-6.84022e-05
1.03842e-05
-3.90661e-05
-6.67314e-05
1.89326e-05
-3.86647e-05
-7.26085e-05
1.55341e-05
3.44657e-05
-9.18191e-06
-2.52391e-05
3.49993e-05
6.7194e-05
-7.81461e-06
-2.34848e-05
1.90879e-05
-3.45567e-05
-3.24682e-06
3.17625e-05
-4.3362e-05
-4.44565e-05
-1.29163e-05
6.19073e-05
-1.54723e-05
-1.92425e-05
-9.33534e-07
1.07805e-05
-2.67865e-05
6.43278e-05
6.28759e-07
3.16113e-05
-3.45442e-05
-2.02109e-05
3.29812e-05
-8.92964e-06
-5.33778e-05
-6.58386e-05
-1.9774e-05
2.3836e-06
3.65478e-05
8.3677e-06
-1.87836e-06
1.48288e-05
-2.75738e-05
4.24776e-05
2.79523e-05
9.69113e-05
6.65833e-05
1.94263e-05
1.45672e-05
-1.3664e-05
5.90176e-05
5.77694e-05
-3.533e-05
8.65561e-05
-1.88486e-05
-2.10223e-05
-5.39366e-05
1.12342e-05
-1.22987e-05
7.03163e-05
-1.0787e-05
6.14929e-06
5.77939e-05
3.47518e-05
-3.56394e-05
-5.85604e-06
4.38269e-05
2.99957e-05
1.48879e-05
3.09409e-06
-6.29968e-05
1.4414e-05
-9.34463e-05
4.1088e-05
-3.34159e-05
-7.29716e-05
6.78631e-06
-4.31375e-05
3.26068e-05
-5.407e-05
-3.51884e-05
-7.38073e-06
-3.4678e-05
7.78132e-06
5.2859e-05
1.66986e-05
-1.61515e-06
7.61894e-05
-2.89665e-06
5.27892e-05
3.30989e-05
2.69053e-05
3.2012e-05
-4.14014e-05
-7.91214e-05
6.70401e-06
-3.71056e-05
3.38769e-07
3.12879e-05
2.55896e-05
4.62425e-05
-7.34464e-06
3.85573e-05
-1.82485e-05
8.604e-05
-3.51763e-05
-2.42111e-05
-2.44784e-05
3.96878e-05
3.96358e-05
-5.59632e-06
-1.59822e-05
5.26492e-05
-3.12827e-05
-9.51276e-06
1.32084e-05
3.03083e-05
4.0144e-05
-6.21305e-05
6.55756e-06
-4.02806e-05
7.68164e-05
-2.3057e-05
2.42691e-06
-2.36238e-05
-7.6571e-06
1.05554e-06
-7.58456e-05
1.89049e-05
4.24919e-05
2.73355e-06
-4.68806e-05
-0.000111356
2.32973e-05
1.92821e-05
1.66998e-06
4.11418e-05
-1.26257e-05
3.11458e-06
-2.15392e-05
-7.41896e-05
3.57796e-05
1.81661e-05
-4.43208e-05
1.38063e-05
2.49417e-05
-1.40067e-05
-5.45265e-05
-1.59674e-05
4.8483e-05
-4.49945e-06
-0.000139603
5.79738e-05
3.08063e-05
0.000100899
-3.72755e-05
3.82715e-05
1.96726e-05
-2.19455e-05
-3.17e-05
-3.15023e-05
5.7979e-05
8.84749e-05
-9.06689e-06
-5.99886e-05
9.21893e-06
8.46433e-06
-1.86265e-08
-2.07851e-05
-3.90378e-05
0.000130274
-3.43213e-05
-4.70519e-05
5.37115e-05
-2.79676e-06
2.82261e-06
-3.79189e-05
-6.05412e-05
4.75426e-05
4.84358e-05
-1.7537e-05
3.74631e-05
-5.19097e-05
4.18175e-05
3.39496e-05
-6.99733e-05
2.73659e-05
3.88058e-05
1.67806e-05
-5.26784e-05
6.28692e-05
-2.19621e-05
-4.31013e-05
-7.40343e-06
-2.66795e-05
4.2547e-05
3.65032e-06
2.75727e-05
-4.73876e-05
-6.43707e-06
3.03093e-05
-2.263e-05
-8.19344e-05
-4.95819e-05
1.36239e-05
3.36366e-05
4.53524e-05
-3.78173e-05
6.72054e-05
-2.02059e-05
-6.2304e-05
4.74694e-05
4.62758e-05
1.24056e-05
3.82876e-05
2.15034e-05
5.87143e-05
-6.49998e-05
-4.25667e-05
-1.34122e-05
4.39058e-05
4.78699e-05
-2.23203e-05
-6.05179e-05
1.98302e-06
-2.43774e-06
-3.00119e-05
1.48916e-05
2.92049e-05
7.28874e-05
7.06638e-05
-3.5825e-05
-0.000140627
2.58458e-05
1.20373e-06
-2.88251e-05
-4.69701e-05
5.72428e-05
3.12588e-05
1.75568e-05
-0.000107817
-1.58474e-05
1.13323e-05
3.99516e-05
3.2814e-05
-4.30102e-05
3.2036e-05
3.74879e-05
-3.91933e-05
2.83311e-05
3.71945e-05
-1.37141e-05
3.56364e-05
-5.44155e-05
8.30442e-05
3.03236e-05
-1.94267e-05
-2.67294e-05
6.84279e-05
4.12177e-05
-2.91597e-05
3.35345e-05
3.92139e-05
3.68372e-05
-3.48373e-05
-2.8152e-05
1.41673e-05
3.52942e-05
-7.15661e-05
-2.16155e-05
4.60049e-05
3.64995e-05
2.3186e-05
-3.12357e-05
-7.13486e-05
2.25485e-05
-3.52722e-05
7.69855e-05
-4.1643e-05
-1.37864e-05
7.4514e-05
-5.4067e-05
4.00387e-06
-1.77841e-05
-5.58046e-05
2.01229e-05
5.96e-06
5.05821e-05
6.31162e-05
-6.58249e-05
8.14192e-05
-4.32241e-05
-2.44338e-05
2.67203e-05
4.3941e-06
9.56794e-06
7.65501e-06
4.3906e-06
-4.22159e-05
2.17027e-05
1.01282e-05
-1.56353e-05
-7.88149e-05
-2.79718e-05
-7.33114e-06
2.62831e-05
6.22857e-06
2.38391e-05
-8.04116e-06
5.26157e-05
3.00964e-05
-3.07955e-05
-8.68591e-05
1.14745e-05
3.8733e-05
1.11607e-05
-2.85623e-05
-9.1251e-06
-2.48163e-06
2.21181e-05
-3.22924e-06
2.53447e-05
2.25466e-05
3.20965e-05
-2.0874e-05
-3.06265e-06
6.05569e-06
-3.41423e-06
3.49663e-05
-2.4487e-05
5.34737e-05
1.96628e-05
1.27885e-05
-1.15692e-05
2.9253e-05
2.87045e-06
3.39585e-05
-1.87163e-05
-2.88617e-06
-6.90416e-05
2.46682e-05
-5.03869e-06
-1.26839e-05
2.05983e-05
-2.634e-05
-2.66172e-06
-3.02468e-05
-7.38935e-05
-1.16538e-05
0.000124286
-9.6718e-05
2.30561e-05
4.08882e-05
1.12082e-05
1.89698e-05
2.29748e-05
-6.50401e-05
-1.85566e-05
-3.58943e-05
9.88785e-06
-2.25084e-05
-0.00011462
5.06439e-05
-0.000120174
-5.21549e-05
0.000129995
-2.85542e-05
-3.29318e-05
1.39812e-05
-3.08757e-06
-4.58444e-06
-6.87174e-05
5.01052e-07
2.54055e-05
-3.06807e-05
-4.83699e-05
-2.09832e-05
3.77457e-05
3.99079e-05
1.09907e-05
-3.37758e-05
2.43064e-05
4.91922e-05
4.5861e-05
-7.13924e-05
-6.57423e-05
-4.4868e-05
5.14663e-05
2.45112e-06
-1.54693e-06
-6.96706e-05
3.42261e-07
-1.04236e-05
6.894e-06
-2.29038e-05
-2.3552e-06
-3.06214e-05
3.27416e-05
-3.22657e-06
-1.03371e-05
-2.52568e-05
2.8462e-05
9.52234e-05
-3.02623e-05
3.21713e-05
4.43811e-05
-4.54087e-05
-0.000101101
-3.30773e-05
0.00011101
6.25442e-05
-5.28279e-05
-0.000107186
-1.18129e-05
6.85671e-05
3.46118e-05
-5.40466e-05
-5.21376e-05
4.75172e-05
-4.06371e-05
-0.000119436
6.12033e-05
-1.81566e-05
-3.11728e-05
0.000105493
-4.5473e-05
-9.29434e-05
-5.38456e-05
9.50508e-06
-5.54987e-05
1.67227e-05
4.28129e-06
-7.23698e-05
6.52415e-06
4.59246e-05
6.77758e-06
-2.06684e-06
5.32221e-05
2.83378e-05
-3.75984e-05
-4.85515e-05
0.000104193
-1.62809e-05
-5.72775e-06
-2.96994e-05
-2.67266e-06
-4.5812e-05
8.22765e-06
-1.31112e-05
-4.38887e-05
-3.36709e-05
-5.49547e-05
4.80607e-05
-3.43908e-05
5.50937e-05
-3.26771e-05
-2.49937e-05
-9.60904e-06
3.26964e-05
-4.34384e-05
8.21739e-05
3.99048e-06
1.01079e-05
-2.64168e-05
-1.685e-06
5.18315e-05
-5.05238e-05
7.65342e-05
-2.69971e-05
-2.84482e-05
5.25336e-06
1.91292e-05
5.75266e-05
-1.55071e-05
1.41482e-05
1.54794e-05
9.6755e-05
-2.60595e-05
2.79746e-06
-6.86486e-05
-4.36394e-06
5.35557e-06
-6.22589e-07
-1.1227e-05
2.76114e-05
-7.06456e-05
2.38857e-05
3.64637e-05
-5.86105e-06
-1.47324e-05
5.85355e-05
-1.46427e-06
5.05941e-07
-8.36316e-06
-6.68819e-05
-7.45826e-06
-5.66776e-05
5.49144e-05
-1.55679e-05
-6.51171e-05
1.93968e-05
-2.5009e-05
1.49552e-05
4.44495e-05
-8.87818e-06
-5.64915e-05
-7.07047e-05
-8.34127e-06
-2.96299e-05
-2.15275e-06
-1.83217e-05
-1.89291e-06
-0.000102778
8.74838e-06
3.24822e-05
3.07966e-05
-0.000103662
-3.61557e-05
2.02422e-05
8.39119e-05
4.75266e-06
-1.31452e-05
3.19695e-05
7.1479e-07
-3.71374e-05
-7.51379e-05
-6.92116e-05
-2.21271e-06
-7.09704e-05
1.36683e-06
-4.3752e-05
5.21012e-05
-3.20337e-05
-2.11226e-05
9.38214e-06
-1.06043e-06
4.85091e-06
-2.59295e-05
5.72978e-05
-2.03846e-05
4.02207e-05
1.71224e-05
-4.36113e-05
4.79072e-06
-4.09898e-05
-3.48897e-07
2.30938e-05
-3.31625e-05
1.34479e-05
1.23583e-05
-2.61035e-05
-4.6381e-05
1.17682e-05
-4.40206e-05
0.000100773
4.16171e-05
5.95757e-05
5.72717e-06
3.6353e-06
3.72168e-05
-2.83867e-05
-2.65328e-05
-3.8703e-05
-3.32441e-05
-2.94484e-06
-4.83484e-06
-7.42383e-05
-9.21179e-05
-4.12926e-05
9.36044e-05
1.79691e-05
2.4615e-05
5.07901e-05
-3.90918e-05
-4.86934e-05
-6.07771e-05
2.91875e-05
-7.01523e-05
2.39771e-05
5.7101e-05
1.43815e-05
-8.54452e-05
6.48923e-05
5.64137e-06
1.15011e-05
-0.000120717
5.33737e-05
7.3608e-05
5.39166e-06
1.38734e-05
1.18415e-05
-9.65188e-06
3.66955e-05
-3.03432e-05
4.71822e-05
6.17245e-05
-4.68106e-06
-4.04328e-05
-2.98403e-05
4.8345e-06
-1.19221e-06
4.36944e-05
-1.84949e-06
-1.13772e-05
-1.70614e-05
7.82475e-05
-4.5835e-06
1.79141e-05
-3.6285e-05
-7.78637e-05
7.38348e-05
-9.19309e-05
-5.20796e-06
2.09289e-05
2.30595e-06
7.05892e-05
3.83817e-05
7.42113e-06
5.50139e-05
-1.01448e-05
4.60942e-05
-1.68376e-05
-5.88747e-05
-4.91897e-05
5.14215e-05
5.45881e-05
-1.98532e-05
5.81008e-05
3.02012e-05
1.38805e-05
2.24967e-05
6.25565e-05
6.90145e-06
-8.80087e-05
-1.3425e-05
-5.00772e-06
4.86997e-05
5.99256e-05
6.30915e-05
1.42644e-06
2.14428e-05
-2.6638e-05
-9.90427e-06
-6.22042e-05
-1.60283e-05
3.25951e-05
-3.8536e-05
-1.90412e-05
5.31534e-05
-2.28166e-05
1.54098e-05
-4.23554e-05
-5.64498e-07
-5.11485e-05
-1.07912e-05
-0.000114606
2.06346e-05
1.91706e-05
7.28538e-05
2.7327e-05
-4.94912e-05
5.05781e-05
5.27867e-05
6.41997e-05
-7.98982e-06
4.4397e-05
-4.86511e-05
-2.58866e-05
-3.12888e-05
9.76644e-05
-4.46031e-05
-4.87093e-05
2.70448e-05
-5.04587e-05
1.36552e-05
-9.01837e-05
-0.000131355
6.048e-05
5.67489e-05
-1.70092e-05
2.47736e-05
-9.10833e-06
5.16705e-05
-8.06586e-05
3.82917e-05
3.78344e-05
1.59072e-05
-7.97561e-06
-6.65558e-06
3.57421e-05
3.1377e-05
-9.32614e-05
-4.72959e-05
-9.38083e-05
-4.97693e-05
6.8475e-05
-3.54392e-05
9.14547e-06
-3.66229e-05
3.87211e-05
1.69347e-05
4.4761e-05
-5.40493e-05
2.94938e-05
6.61314e-05
1.2241e-05
-6.6429e-05
1.13354e-06
1.48162e-05
-1.36932e-05
6.0895e-05
-9.08854e-07
7.89305e-05
9.09669e-06
5.26159e-05
-9.66364e-05
3.41134e-05
6.60541e-06
-1.27823e-05
-4.43452e-05
-2.06706e-05
3.15066e-06
-9.3074e-07
-6.30612e-05
-0.000100799
-4.15872e-05
-9.15086e-05
-4.81859e-05
5.62918e-05
-1.52458e-05
-5.22907e-05
-2.412e-05
-1.0829e-05
-4.57694e-05
-4.23095e-05
1.19053e-05
2.83611e-05
-1.41363e-05
-5.28246e-05
-6.13481e-05
1.77324e-05
1.0733e-05
-2.08279e-05
5.963e-05
1.7907e-06
2.51202e-05
-2.36351e-05
5.88674e-05
3.18957e-05
4.76111e-05
-7.31894e-05
7.22471e-05
-0.000100922
-6.24091e-06
6.49315e-05
8.48935e-06
3.23066e-05
-3.30713e-06
-4.32204e-05
2.37813e-06
1.99969e-05
-1.27294e-05
9.59355e-06
3.614e-05
2.75425e-05
6.92134e-05
-2.72435e-06
-6.3224e-05
-6.14568e-06
-7.61042e-06
-1.02109e-05
4.45035e-05
5.20097e-06
2.67313e-05
-6.62962e-06
-4.79841e-06
-2.948e-05
1.43548e-05
5.69003e-06
6.79196e-05
9.01194e-06
3.43912e-05
1.84249e-05
1.29041e-05
-4.46521e-05
3.45935e-05
3.36546e-05
1.93855e-06
-1.88095e-05
4.46872e-05
-5.23893e-05
6.75363e-05
7.74651e-05
6.37164e-06
8.13848e-05
-3.18105e-05
2.20673e-05
-1.73561e-05
-2.87808e-05
-6.86578e-05
1.19241e-05
2.47908e-05
1.23699e-05
-3.48676e-05
2.16773e-05
-2.20751e-05
-3.52517e-06
1.23346e-05
1.70909e-06
2.97124e-05
-6.88564e-05
-1.33739e-05
9.18962e-05
-3.43514e-05
1.47284e-05
-1.23637e-05
4.94567e-05
2.42065e-05
-4.44687e-05
5.05934e-05
0.000106778
9.66932e-05
6.52509e-05
8.89879e-07
-7.20634e-06
-1.14562e-05
6.66907e-05
-5.44824e-06
4.01794e-05
-2.33976e-05
4.17561e-05
-3.41268e-05
-2.13976e-05
6.28142e-06
-2.62642e-05
3.58212e-05
-8.93142e-05
4.69465e-05
-3.5755e-05
3.30248e-05
2.34644e-05
-9.97115e-05
2.21337e-05
3.57016e-05
-1.87462e-05
2.13265e-05
-6.7824e-05
2.71616e-05
-5.16977e-05
5.68139e-05
4.88434e-05
-1.74802e-05
3.8041e-05
4.54163e-05
1.1788e-05
-8.37957e-06
2.07492e-05
-2.05641e-05
5.28253e-05
-7.57058e-05
-4.26271e-05
-7.67317e-06
2.04989e-05
-1.54355e-05
-3.12333e-05
1.17398e-05
6.2165e-05
4.88077e-05
4.33624e-06
-0.000127571
-5.02239e-05
-6.86671e-05
-6.60997e-05
3.09141e-05
7.61503e-05
-7.01356e-05
-7.02962e-06
9.2847e-06
4.82403e-05
3.84008e-06
8.47306e-06
-6.75758e-05
-1.85828e-05
1.21737e-05
-8.66794e-06
-3.19526e-05
-1.42838e-05
3.18384e-06
7.32997e-06
1.8241e-05
2.56515e-05
-6.7884e-05
-4.71459e-06
3.49288e-05
-5.05333e-05
1.07934e-05
-1.5015e-05
-1.63051e-05
-2.9539e-05
9.5389e-05
2.63904e-05
-1.76695e-05
-2.15014e-05
-1.27986e-05
8.03312e-06
-1.35811e-05
2.6391e-05
-7.18515e-06
-1.90848e-05
2.17276e-05
5.39323e-05
-9.03429e-05
5.79043e-05
-1.44775e-05
-1.46055e-05
-3.8323e-05
-4.54384e-05
2.61619e-05
5.74816e-05
2.07165e-05
1.80587e-05
2.61945e-05
-7.22171e-06
-2.65968e-05
2.38705e-05
-3.81797e-05
-3.29991e-05
2.86615e-05
4.19607e-06
5.34141e-05
-1.2902e-05
-4.54613e-06
9.10497e-05
1.63326e-05
1.69135e-05
-4.63272e-05
3.5575e-05
-3.91714e-05
2.29465e-05
1.72232e-05
3.08559e-06
6.8058e-05
6.72806e-05
-1.70232e-05
-7.54697e-06
4.5587e-05
-1.23874e-05
-6.61239e-06
0.000122596
3.26277e-05
1.82122e-05
2.49494e-05
-5.22537e-05
-2.22385e-05
-5.70168e-05
1.30478e-06
7.6904e-06
2.41778e-05
1.07707e-05
-5.20677e-05
1.76706e-05
6.44929e-05
-6.11885e-05
5.44074e-05
-4.49319e-05
-7.05197e-05
6.23125e-06
3.27921e-05
4.70876e-05
1.32748e-06
1.32954e-05
-7.786e-05
-2.8183e-05
-6.89272e-06
0.000112601
3.68479e-05
-3.34256e-05
4.8563e-05
3.18347e-05
1.14889e-05
6.94895e-05
0.00013327
-7.38588e-05
-4.20364e-05
-1.68966e-05
2.04116e-05
8.13324e-06
-1.95538e-05
3.47545e-05
5.05912e-05
-6.30391e-05
-4.22691e-05
1.79628e-05
5.7034e-05
-6.66827e-07
2.83982e-05
-3.47802e-05
-8.23163e-05
-3.16931e-05
-5.51024e-05
-1.69487e-05
6.43999e-05
-5.57769e-05
5.2521e-05
-0.00011234
-7.10647e-05
-1.5223e-05
-1.60275e-05
-3.593e-05
5.28325e-05
4.40278e-05
-4.7551e-06
-6.05782e-05
-2.03252e-05
1.72125e-05
2.40905e-05
-2.15002e-05
-3.80276e-05
1.84207e-05
-5.22968e-05
-1.48045e-05
-9.04265e-05
-1.86132e-05
-1.40984e-05
0.000121308
-2.54702e-05
5.25209e-05
3.79473e-05
3.11937e-05
-3.85306e-05
-5.10248e-06
-4.49657e-05
2.62954e-05
1.12425e-05
-1.86055e-05
1.74427e-05
-3.76217e-05
8.71136e-06
-3.17958e-05
7.14655e-05
-7.47021e-05
0.000101809
5.1964e-05
3.1805e-05
1.94153e-05
4.63662e-05
-3.00456e-06
1.62399e-05
7.99991e-05
3.67605e-06
-1.37995e-05
-5.21087e-05
-5.62184e-05
2.68224e-05
-3.78023e-05
-4.78225e-05
2.88634e-05
-2.68989e-05
-1.16547e-05
-5.02804e-05
3.10766e-05
-2.00599e-05
3.81089e-05
-8.71742e-05
-4.69048e-05
1.67185e-05
4.92432e-05
9.12766e-06
1.42597e-06
-6.69416e-05
-7.27305e-05
-1.43615e-05
-9.74489e-06
-1.56977e-05
2.67379e-05
-9.21224e-05
-5.88646e-05
-1.25882e-05
5.10601e-05
-8.97488e-05
7.86019e-05
1.30895e-05
1.51683e-05
-0.000114672
-4.19711e-05
1.06482e-05
8.84158e-05
-6.75279e-06
-6.93044e-06
1.08083e-05
-9.1519e-05
-1.49588e-05
1.07781e-05
5.18088e-05
-3.28288e-05
4.2594e-05
9.43069e-06
7.85105e-07
4.03607e-05
-3.83495e-06
2.66728e-05
-2.21874e-05
6.11413e-07
2.16381e-06
1.83086e-05
-2.01634e-05
-7.52347e-05
-8.20152e-05
-4.08832e-05
3.06885e-05
3.11447e-05
-1.7603e-05
-1.14893e-05
3.87504e-05
9.27434e-06
1.17536e-05
-4.44871e-05
-5.2748e-05
-4.26528e-05
9.60721e-05
-3.91065e-05
-6.17567e-05
-4.51248e-05
4.72018e-06
-4.15781e-05
-1.74739e-06
2.57664e-05
4.81141e-05
-3.50764e-05
2.89144e-05
3.42639e-05
2.19493e-05
-2.03154e-05
-2.84291e-05
2.95847e-05
6.23254e-05
1.81493e-05
-1.77092e-05
-4.22895e-05
-3.51795e-06
6.32221e-05
3.54648e-06
7.6323e-06
-5.29364e-06
1.01698e-05
2.74982e-05
2.91367e-05
-2.6076e-05
-5.974e-05
8.67875e-05
3.29313e-05
-1.45724e-05
-1.42371e-05
5.72901e-05
3.8431e-06
9.81891e-05
0.000121367
-2.85944e-05
2.49979e-05
7.87177e-06
-1.8672e-05
-1.7015e-05
-7.32376e-05
0.00011208
-1.2597e-05
-6.01785e-05
7.86246e-06
3.08841e-05
9.78378e-06
7.84057e-06
1.71366e-05
4.84288e-08
-2.67226e-05
-2.56809e-05
-4.13368e-05
-4.55834e-05
-1.76241e-05
-7.76525e-06
-4.82692e-05
7.13976e-05
1.6424e-05
3.01733e-05
-3.196e-05
1.39844e-05
-1.39407e-05
-1.55891e-05
4.47663e-06
-1.65856e-05
8.27661e-05
5.56017e-05
5.67245e-06
3.54111e-05
2.8623e-06
-1.63052e-05
2.07496e-05
9.63197e-06
-1.45009e-05
-4.88881e-05
-4.07485e-05
-9.69204e-06
4.12581e-05
-2.15804e-05
-3.4153e-05
5.64964e-05
-1.3732e-05
-5.04199e-05
3.84734e-05
-2.33626e-05
-1.19593e-06
-5.94469e-05
5.95243e-06
6.40079e-05
-7.39722e-05
-2.23715e-05
-4.28862e-06
-7.43157e-05
-1.58094e-05
5.6006e-05
-2.41019e-05
5.20149e-05
4.58726e-05
-3.16426e-05
0.000122277
2.89967e-05
1.20702e-05
-2.74091e-05
-3.44678e-05
-3.20199e-05
5.98456e-05
4.27903e-05
-2.54269e-05
-1.62857e-05
4.25267e-05
4.5598e-05
-7.08052e-05
-4.53843e-05
-1.75918e-05
6.00135e-05
3.70808e-05
4.36974e-05
-7.64523e-06
2.1755e-05
1.48433e-05
1.47815e-05
3.49518e-05
1.44988e-05
-7.17351e-05
5.90796e-05
3.93529e-05
-1.62121e-05
4.74529e-05
-1.8456e-05
-3.84229e-05
8.46094e-05
5.78989e-05
5.2993e-05
-2.82943e-05
-1.40262e-05
-3.38152e-06
6.56868e-05
1.70161e-05
1.81663e-05
-1.45185e-05
-3.22149e-05
8.30134e-06
5.70645e-05
3.72087e-05
6.8962e-05
3.92867e-05
3.07856e-05
-1.59346e-05
4.17498e-05
8.47247e-06
-3.21823e-05
-1.07551e-05
-1.45924e-05
5.3932e-05
1.21891e-05
2.11238e-05
-2.64748e-05
1.12988e-05
-2.39081e-05
-1.44508e-05
1.09986e-05
-7.7344e-06
4.69026e-06
1.68595e-05
6.67061e-05
1.5799e-05
-0.000107579
-8.24989e-05
6.5231e-06
-5.85074e-05
5.17322e-05
1.84864e-05
1.66771e-05
-7.07678e-05
5.68514e-06
-1.86225e-05
-4.33436e-05
5.83279e-05
-4.15358e-05
-7.76738e-05
-1.33209e-05
-3.74748e-05
-1.10012e-06
5.06307e-05
3.43446e-05
5.214e-05
2.95318e-05
4.71442e-05
-2.02378e-05
0.000134813
5.51658e-05
-3.82705e-05
-1.12213e-05
0.000111733
1.1283e-06
-1.38334e-05
-2.07328e-05
-1.0534e-05
5.75127e-06
2.51087e-05
-6.47183e-05
1.22271e-06
0.00011825
2.02317e-05
-6.96789e-05
-8.34581e-05
9.06892e-05
4.29547e-05
-6.09942e-05
-2.33576e-06
4.52413e-06
-2.48622e-05
-7.49838e-05
-6.30156e-06
3.39788e-05
6.28863e-05
-2.65858e-06
-2.97544e-05
-6.67728e-05
-1.08313e-05
7.42311e-06
3.03182e-05
-1.26918e-05
1.26475e-05
-3.24746e-05
-1.54036e-05
4.65962e-05
-6.06058e-07
-7.33231e-05
-3.61174e-05
3.19349e-05
5.07123e-05
5.52047e-05
-3.86608e-05
-2.71013e-05
-1.73203e-06
4.00438e-05
-1.28826e-05
1.15236e-05
2.75391e-05
1.51003e-05
2.02365e-05
3.27821e-05
-0.000103584
-2.37199e-05
5.62989e-05
-3.56048e-05
-8.5642e-05
0.000101618
-2.90704e-05
2.15792e-05
-5.19503e-05
6.29318e-06
-5.95585e-05
3.80224e-06
-4.01156e-05
2.2179e-05
-9.73733e-06
6.35826e-05
-2.76124e-05
-2.54393e-05
9.06724e-05
-5.55883e-05
-3.51442e-05
1.47806e-05
-2.30939e-05
3.46848e-05
-4.10142e-05
-1.09316e-05
2.98407e-05
3.45646e-05
-4.78458e-05
-5.78745e-05
-3.7299e-05
3.58616e-05
-1.02358e-05
-1.76756e-05
3.83474e-05
4.55067e-06
-3.0726e-05
-6.31748e-05
6.19108e-06
-5.68882e-05
0.00012035
-0.000117729
-6.80869e-05
1.01873e-05
-1.02159e-05
2.82158e-05
-1.96022e-05
-6.25593e-06
3.50752e-05
9.93151e-06
-5.96482e-05
5.40571e-05
-2.97579e-05
-7.26315e-07
-9.39087e-06
-2.64808e-05
5.89004e-05
9.35846e-05
7.95014e-05
-1.68926e-05
-6.82933e-05
-7.77041e-05
4.75624e-05
-1.31759e-06
1.17443e-05
5.16309e-05
-6.3151e-05
2.21425e-05
3.45722e-05
-3.89616e-05
4.9273e-05
9.85351e-06
-2.73692e-05
-7.18009e-05
-2.20758e-06
9.41253e-06
5.68596e-05
-2.014e-05
-8.62242e-06
7.08934e-06
9.57749e-07
-2.91977e-05
-3.67719e-05
9.86736e-07
-7.08317e-06
-7.77072e-05
4.07123e-05
2.28041e-05
-2.33528e-05
-2.8273e-05
6.35558e-06
-3.10614e-05
-2.37785e-05
5.87651e-05
3.77754e-05
-8.88547e-05
1.88741e-05
2.82158e-05
2.42067e-05
-1.97266e-05
3.13716e-05
2.67727e-05
-2.7891e-05
-1.14411e-05
4.39797e-05
-1.84717e-05
6.2898e-06
-9.41602e-06
3.6708e-05
-1.65384e-05
-2.21912e-05
-3.26346e-05
2.11541e-05
-9.05283e-05
-2.25266e-05
7.17794e-06
-1.67807e-05
-5.12952e-05
-4.15262e-05
3.02581e-05
1.87588e-05
1.34517e-05
6.79976e-05
0.000103677
-2.68699e-05
-5.62217e-05
-7.36862e-06
-8.72975e-06
-8.22078e-06
-0.000119192
3.07662e-05
9.97077e-05
7.93551e-05
2.35233e-05
2.89502e-06
3.23567e-05
6.61961e-06
-1.27408e-05
-1.12372e-05
3.50201e-06
6.08945e-05
-6.73509e-06
5.99329e-05
-9.10764e-06
-4.93436e-05
-1.25011e-05
-1.79211e-05
3.41779e-05
-3.37977e-05
7.3954e-06
5.94537e-05
0.000102923
1.58974e-05
2.07452e-06
6.60836e-05
-5.49523e-05
-6.42205e-05
4.83601e-06
5.86053e-05
-3.53623e-05
-0.000113619
-3.21865e-05
8.25222e-06
3.03723e-05
4.09479e-06
1.25875e-05
-2.57916e-05
4.03018e-06
-1.99422e-05
-0.000115459
-8.30309e-06
2.34316e-05
1.6768e-05
-9.89961e-06
-1.77941e-05
3.4106e-05
5.38378e-05
-8.90112e-07
-3.26859e-05
-1.44829e-05
1.08395e-05
2.86298e-05
1.41953e-05
-1.13214e-05
4.36334e-05
-9.70054e-06
4.36597e-05
-6.25965e-06
-6.49596e-05
8.33397e-05
7.37351e-06
-2.33593e-05
-5.29962e-05
8.21939e-06
-7.67082e-05
-5.47341e-05
1.69987e-05
-2.35286e-05
6.93043e-05
-5.8925e-05
-1.58969e-05
-3.79665e-06
-4.36554e-05
1.74996e-06
6.90878e-06
-1.5634e-05
-1.26811e-05
-6.3132e-06
-2.87471e-05
6.35836e-05
-1.27363e-05
2.98873e-05
-1.94586e-05
0.000106661
-6.87314e-05
2.64286e-06
7.97831e-05
-7.28981e-05
-2.11627e-05
-1.82888e-06
-5.65476e-06
-3.07191e-05
-1.66125e-07
6.13107e-05
-4.53612e-05
-3.93682e-06
2.74235e-05
5.10006e-05
6.30144e-06
2.15231e-05
-5.93148e-05
-4.52384e-05
-4.56914e-05
-4.39745e-05
-2.38915e-05
-5.03432e-05
-2.24274e-05
-6.28909e-05
1.11945e-05
0.000117078
1.0884e-05
1.60327e-06
7.11554e-06
-1.24837e-05
-9.79608e-05
1.17277e-05
-2.43351e-05
-6.52868e-05
-4.57343e-05
9.77494e-05
-2.84507e-05
2.46854e-05
2.89711e-05
-3.39511e-05
9.19257e-05
-5.06379e-05
-3.13994e-05
4.17815e-07
2.2626e-05
5.23936e-05
-4.63505e-05
3.01935e-06
-7.25868e-05
3.6242e-05
4.538e-05
5.10276e-05
4.96123e-05
1.1462e-05
6.3146e-06
1.38569e-05
1.41445e-06
1.35629e-05
-5.94301e-05
-5.26087e-05
-3.14447e-05
3.68987e-05
-1.13063e-06
4.39398e-06
1.65976e-05
1.01099e-05
-4.56733e-05
-5.67068e-05
-2.16052e-05
3.7537e-06
3.02104e-05
2.47171e-05
-3.70556e-05
-4.68162e-05
-8.03267e-05
-3.89204e-05
8.46449e-05
4.35202e-05
1.98976e-05
-8.17515e-06
-6.95756e-06
-5.38758e-05
3.58439e-05
-6.18509e-05
7.90429e-05
-1.59477e-05
-3.99173e-05
-6.26177e-05
3.5122e-05
5.15333e-05
1.97068e-06
-3.47081e-06
-9.94909e-06
5.45722e-05
-4.35938e-05
-3.2003e-05
3.58508e-05
-2.33698e-05
-7.19354e-06
3.1627e-05
-2.36789e-05
4.7909e-05
6.11597e-05
-1.50185e-05
5.83357e-05
-1.60111e-05
-5.55502e-05
-4.11177e-05
3.92956e-05
8.73662e-05
-9.01869e-06
2.39066e-05
5.31229e-05
-2.11841e-06
3.7592e-05
-6.11139e-05
-5.37824e-05
4.75649e-05
-2.9743e-05
-7.41598e-05
-1.30137e-05
3.82867e-06
-4.95901e-05
-1.00627e-05
1.48062e-05
3.36743e-06
-4.77559e-05
-3.2661e-05
4.77955e-06
4.4096e-05
4.04312e-05
-4.65773e-05
-4.65788e-05
9.95398e-06
6.58093e-05
1.77752e-05
-1.76014e-05
-0.000102062
4.74706e-05
-2.01669e-05
-7.77585e-06
-8.79867e-06
4.50334e-05
-5.59189e-06
-5.70056e-05
-1.9311e-05
-3.39663e-05
4.75904e-05
2.16509e-05
-2.22092e-05
-2.47789e-05
-2.54153e-05
-5.89062e-06
-1.1566e-05
-4.13185e-05
-4.02363e-05
1.20618e-06
-4.48264e-05
2.04258e-05
3.38047e-06
-2.82916e-05
3.01641e-05
9.34838e-06
-6.713e-05
-4.05738e-05
7.09335e-05
-3.39556e-05
-2.67513e-05
2.17739e-05
1.56354e-05
1.4439e-05
-8.90251e-06
-1.1994e-05
1.44321e-05
8.7028e-05
-9.69856e-07
1.2423e-05
-5.59274e-05
-1.92778e-05
3.90814e-05
3.06987e-06
-4.05501e-05
7.56606e-06
6.72848e-05
3.94991e-05
-7.47545e-05
-3.48643e-05
2.46891e-05
-5.16153e-05
3.76732e-06
-4.08548e-05
-1.83189e-05
8.32836e-05
-3.53504e-05
-3.5636e-05
-9.1024e-06
-2.37037e-05
-7.61579e-05
-4.3174e-05
-3.44525e-05
3.0332e-05
-5.93204e-05
-4.43425e-05
-1.38483e-05
2.80146e-05
4.4345e-05
7.11193e-06
-4.1828e-07
-3.37957e-05
5.6318e-05
4.62114e-05
-7.51618e-05
0.00010683
-4.85466e-05
-1.38161e-05
-8.41101e-07
-1.47616e-05
-6.57006e-05
-1.55211e-05
-5.29015e-06
1.81822e-05