# vtk DataFile Version 1.0
Net Charge Density
ASCII
DATASET STRUCTURED_POINTS
DIMENSIONS 256 128 1
ORIGIN 0 0 0
SPACING 0.15625 0.15625 1
POINT_DATA 32768
SCALARS rhonet float
LOOKUP_TABLE default
-3.89677e-06
-9.51277e-05
0.000144792
9.63218e-05
3.56843e-05
0.000120451
-0.000118445
9.1858e-05
0.000154216
2.28994e-05
-3.75601e-05
0.000108725
0.00010382
7.94455e-05
0.000109346
4.99608e-05
8.77436e-05
0.000140236
4.05877e-05
-6.79097e-05
-6.40703e-06
0.000141859
0.000144767
4.77823e-05
3.7268e-05
2.07426e-05
7.74215e-05
9.0589e-05
-1.35218e-05
-7.27426e-05
5.23021e-05
3.97239e-05
4.3669e-05
6.90081e-05
1.24413e-05
0.000171713
1.68071e-05
7.28731e-05
7.7358e-05
-5.53043e-06
2.29318e-05
6.83207e-06
0.000136404
9.39809e-05
2.09381e-05
1.8683e-05
-3.16136e-05
6.95543e-05
0.000116213
7.88721e-05
-1.20075e-05
2.49782e-05
8.34425e-05
0.000148995
3.55951e-05
1.75043e-05
0.000151011
-5.17468e-05
5.67781e-06
7.1696e-05
5.02793e-05
6.06022e-05
7.16769e-06
8.01801e-05
8.22489e-05
-8.03834e-05
4.41821e-05
0.000136175
4.09955e-05
4.82833e-05
7.92339e-05
3.67112e-05
-2.69159e-05
4.96677e-05
-1.14902e-07
5.11557e-05
4.20864e-05
-3.83086e-05
9.21623e-05
0.000106615
8.7184e-05
2.54081e-05
7.49615e-05
0.000101106
4.54676e-05
-4.47989e-06
-1.66912e-05
6.70489e-05
0.000119669
-2.34875e-05
9.00029e-05
-1.47952e-05
-3.90533e-05
-6.21437e-06
-8.99177e-05
5.22716e-05
0.000157961
2.40977e-05
9.16885e-05
-2.49443e-05
0.000157723
9.09187e-05
-3.16952e-06
9.47258e-05
3.90382e-05
0.00013097
-2.58675e-07
-6.85494e-05
2.66312e-06
7.39997e-05
0.00013342
5.79279e-05
2.02989e-05
3.3116e-05
8.04213e-05
4.36597e-05
1.2266e-05
7.49689e-05
5.09603e-05
4.32276e-05
-3.98803e-05
-3.45634e-05
4.04444e-05
2.44897e-05
0.00011572
6.60872e-05
1.82547e-05
8.13099e-05
1.99641e-05
-1.88102e-05
0.000119796
9.26165e-05
-2.24402e-06
3.77486e-05
2.03247e-05
6.79679e-06
4.46091e-05
-3.19161e-05
4.68966e-05
-1.15023e-05
-4.98407e-05
2.32954e-05
2.0962e-05
0.000160761
9.88223e-05
2.06369e-06
0.000137836
1.15241e-05
-3.11239e-05
0.000132418
1.78268e-05
2.9132e-05
0.000108428
-8.34535e-06
3.45047e-05
4.32302e-05
5.74661e-06
3.42709e-05
-5.27641e-06
1.75423e-05
7.67779e-05
2.50083e-05
0.00011271
-2.20691e-05
3.25856e-05
2.5523e-05
5.84617e-05
-6.12722e-05
0.000105448
0.000137296
2.50291e-05
4.32241e-05
7.45819e-05
0.000111579
-2.02681e-05
-8.13324e-06
8.72926e-05
-8.23222e-05
1.15579e-05
3.31805e-05
8.87688e-05
-7.06001e-05
-3.1811e-05
5.65336e-06
1.04989e-05
7.98538e-05
4.14203e-05
7.20921e-05
0.000102554
7.46857e-05
2.4884e-05
0.000198125
8.16119e-05
-6.56995e-05
6.24196e-05
0.000201229
4.75226e-05
8.32751e-05
7.86674e-05
-1.63083e-05
5.95984e-05
0.00014917
4.39011e-05
3.83353e-05
-1.00753e-05
6.9771e-05
-5.98881e-05
5.34238e-05
6.86803e-05
8.57908e-05
6.81027e-05
0.000137439
0.000106096
-2.40523e-05
0.000111081
-0.000131281
0.000102691
9.90944e-05
-5.28728e-05
-3.79214e-05
8.69744e-05
0.000114877
0.000176992
3.40519e-05
7.95298e-05
5.67454e-05
-3.69139e-05
-1.51402e-05
8.69032e-05
6.86066e-05
6.22834e-06
4.16542e-05
2.36375e-05
2.60697e-05
0.000121307
-3.55705e-05
-2.05771e-05
2.75006e-05
5.94511e-05
8.97946e-06
1.84994e-05
8.6694e-05
-5.82663e-05
-3.0722e-07
2.65904e-05
-1.44095e-05
-2.2196e-05
-3.95465e-05
0.000128655
-4.29619e-06
2.10484e-05
-3.85131e-05
0.000102294
2.14379e-05
2.40523e-05
4.18614e-05
-0.000104899
2.47048e-05
-6.30282e-05
-2.51196e-05
-2.38868e-05
5.12262e-05
-2.60444e-05
-7.57643e-05
4.9893e-05
-6.60464e-05
-4.28992e-05
2.3341e-05
-5.99085e-05
-8.02728e-05
3.00212e-06
-4.24259e-05
4.66185e-06
1.08914e-05
-2.15753e-05
-4.0608e-06
-5.82077e-05
-6.74938e-05
-0.000106137
-1.79199e-05
-2.00458e-05
-5.72712e-05
-2.52762e-05
7.73033e-06
-3.07416e-05
-8.53871e-05
-3.53892e-05
-8.36141e-06
2.7442e-05
-7.95684e-05
-6.67488e-05
2.31334e-05
-0.000103178
-3.37884e-05
1.98334e-05
-8.20335e-05
-5.15862e-05
-4.38407e-05
8.67248e-06
3.55998e-05
-2.47125e-05
4.87501e-06
-0.000112384
-3.15171e-05
3.88796e-05
-3.39416e-05
-6.56133e-05
-4.11931e-05
-3.1738e-05
2.98233e-05
-2.85322e-05
-3.54565e-05
-2.34861e-05
-0.00011611
1.48109e-05
-3.37934e-05
4.56306e-05
-5.12688e-05
-5.72855e-05
-3.73455e-05
-3.01475e-05
-6.05665e-05
-1.00287e-05
-7.96346e-05
-0.000109192
1.21045e-05
-4.39815e-05
9.01776e-06
-1.84358e-05
1.72419e-05
-5.13538e-05
-1.04337e-05
4.76097e-05
-2.54939e-05
5.74084e-05
2.15834e-07
-3.24121e-05
-5.04447e-05
-8.2256e-05
2.84824e-05
2.4466e-05
-6.1695e-05
-0.000158637
-4.16979e-05
-6.56582e-08
-1.69131e-05
8.77329e-06
5.3313e-05
3.15602e-06
-1.07939e-05
2.47138e-05
-5.9657e-06
3.43233e-05
-2.73116e-05
-6.84708e-06
-1.89466e-06
-4.36436e-05
-0.000106617
-3.96518e-05
-2.96773e-05
-3.55598e-05
1.64226e-05
-5.91241e-05
-4.2719e-05
-1.0673e-06
-6.00039e-06
5.43518e-05
-3.5424e-05
-7.13796e-05
-7.13187e-05
4.01705e-05
1.15474e-05
-5.23514e-05
-1.11548e-05
9.64454e-06
3.18991e-05
-8.57747e-05
1.3961e-05
-6.13793e-05
-7.74185e-06
-3.4863e-05
-1.67098e-05
-4.55659e-05
-6.96029e-05
1.70249e-05
-4.88105e-05
-2.07964e-05
1.59823e-05
-1.0553e-05
-2.35448e-05
-1.2441e-05
-3.31042e-05
-4.60122e-05
-1.33581e-05
-4.22454e-05
-8.32311e-06
-5.94474e-05
-7.82579e-05
8.69727e-06
-2.01957e-06
-8.38253e-05
1.05491e-05
-3.22356e-05
-4.36761e-05
-0.00011768
-8.72544e-06
-3.99577e-05
-3.83079e-05
-7.16745e-05
9.37073e-06
3.00056e-05
-1.7041e-05
-2.39993e-05
-1.85601e-06
-5.11227e-05
-2.02558e-05
-8.13482e-05
-6.40948e-05
3.62431e-05
-8.02709e-05
-7.56374e-06
2.3746e-05
2.21164e-05
-5.27813e-05
-2.4254e-06
3.60705e-05
-9.46559e-05
1.02373e-05
-2.21481e-05
3.9703e-05
-4.13513e-05
-2.55485e-05
-5.70086e-06
3.04061e-05
-6.90697e-05
-4.77675e-05
3.67509e-05
-4.79666e-06
2.05857e-06
-4.8656e-05
-0.000107547
-6.60246e-05
-2.66008e-05
-2.24793e-05
-9.32999e-06
-1.88572e-05
-0.000101449
6.32298e-06
3.69593e-05
4.61051e-06
-1.08494e-05
-2.36544e-05
-8.50842e-05
-3.90908e-05
4.81098e-05
-6.97782e-06
-7.51886e-05
-6.46281e-05
-4.37903e-05
3.07559e-05
-5.53511e-05
1.8311e-06
-5.12168e-05
9.71676e-05
1.17978e-05
-4.14066e-05
-5.22413e-05
-4.83998e-05
-4.73994e-05
3.2125e-05
-3.50833e-05
-7.29868e-05
1.69827e-06
-2.53877e-05
-1.98884e-05
4.50562e-06
-1.73199e-05
7.05678e-05
5.70893e-05
-6.70664e-05
-3.48976e-05
-2.73379e-05
-7.02047e-05
-2.06061e-05
2.42677e-05
8.58859e-05
-8.70344e-05
6.93463e-06
-4.34535e-05
-3.62701e-05
6.90322e-05
3.75884e-05
-6.27585e-05
-4.99166e-06
2.55416e-05
-5.11219e-05
2.26249e-05
-1.3483e-05
-4.80207e-05
-1.9824e-05
3.05474e-06
3.73248e-05
3.42679e-05
-1.23486e-05
-2.31673e-05
-0.000132199
-1.66823e-07
-7.60669e-06
5.12584e-05
-7.35337e-06
-7.36314e-05
5.01703e-06
-3.30423e-05
-1.99117e-06
5.00248e-05
-7.79773e-06
-2.33894e-05
-8.48016e-06
1.05426e-06
-1.92295e-05
7.13235e-05
-5.15232e-05
7.82253e-06
3.11635e-05
6.53438e-05
-4.67903e-05
-2.90644e-05
-1.14904e-05
-2.49565e-05
-9.34284e-05
-2.04821e-05
3.51595e-05
4.8863e-05
3.64077e-05
-1.64519e-05
3.77698e-05
6.14579e-05
-4.75245e-05
4.48449e-05
4.40086e-05
9.82289e-06
-5.10864e-05
1.23075e-05
2.34443e-05
7.04305e-05
4.96684e-05
-3.57146e-05
2.25283e-05
5.27361e-06
-2.51164e-05
4.80086e-05
3.404e-05
2.11624e-05
-2.89195e-05
-7.34262e-05
2.1675e-05
3.48733e-05
1.4212e-06
-4.63352e-05
1.81724e-06
-1.65715e-05
5.22445e-05
1.92707e-05
-4.25101e-05
-9.05944e-05
6.88457e-06
2.94276e-05
9.43244e-06
3.9076e-05
-4.01766e-05
2.79776e-05
-3.30701e-05
9.02759e-05
1.87057e-05
2.19357e-05
-2.38944e-05
3.89215e-05
7.95068e-05
-1.42981e-06
-1.07866e-05
-4.31227e-05
-5.63427e-05
3.65556e-05
5.69143e-06
-2.97658e-05
3.18502e-05
-3.75101e-05
-1.97687e-05
6.36964e-05
5.06414e-05
-4.8059e-05
-4.18768e-05
-9.31253e-06
-2.63555e-05
-1.3366e-05
5.09445e-05
7.41072e-05
-1.38803e-05
-5.52132e-05
-6.02389e-05
2.25469e-05
4.01654e-05
-3.5647e-05
4.60858e-05
6.04029e-05
1.00422e-05
-2.72855e-05
-6.84016e-05
1.03851e-05
-3.9066e-05
-6.67311e-05
1.89331e-05
-3.86646e-05
-7.26086e-05
1.55346e-05
3.44657e-05
-9.18237e-06
-2.52393e-05
3.49992e-05
6.7194e-05
-7.8138e-06
-2.34854e-05
1.90873e-05
-3.45568e-05
-3.24659e-06
3.17621e-05
-4.33618e-05
-4.44563e-05
-1.29165e-05
6.19066e-05
-1.54716e-05
-1.92425e-05
-9.33884e-07
1.07799e-05
-2.67864e-05
6.43281e-05
6.28526e-07
3.16112e-05
-3.45437e-05
-2.02106e-05
3.29813e-05
-8.92964e-06
-5.33774e-05
-6.58382e-05
-1.97742e-05
2.38337e-06
3.65472e-05
8.36793e-06
-1.87766e-06
1.48286e-05
-2.75733e-05
4.24775e-05
2.79521e-05
9.69113e-05
6.65833e-05
1.9426e-05
1.45667e-05
-1.36634e-05
5.90171e-05
5.77692e-05
-3.53307e-05
8.65557e-05
-1.88483e-05
-2.10223e-05
-5.39368e-05
1.12335e-05
-1.22987e-05
7.03163e-05
-1.0787e-05
6.14906e-06
5.77938e-05
3.47521e-05
-3.56392e-05
-5.85639e-06
4.38269e-05
2.99957e-05
1.48875e-05
3.09374e-06
-6.29971e-05
1.4414e-05
-9.34466e-05
4.10879e-05
-3.34166e-05
-7.29722e-05
6.78631e-06
-4.31378e-05
3.26063e-05
-5.40694e-05
-3.51891e-05
-7.38073e-06
-3.46783e-05
7.7819e-06
5.28591e-05
1.6699e-05
-1.61515e-06
7.61892e-05
-2.8963e-06
5.27899e-05
3.30992e-05
2.69059e-05
3.20117e-05
-4.14015e-05
-7.91213e-05
6.70366e-06
-3.71066e-05
3.39118e-07
3.12877e-05
2.55889e-05
4.62426e-05
-7.34441e-06
3.85573e-05
-1.82488e-05
8.60401e-05
-3.51758e-05
-2.4211e-05
-2.44784e-05
3.96882e-05
3.96362e-05
-5.59597e-06
-1.5982e-05
5.26492e-05
-3.12827e-05
-9.51299e-06
1.32087e-05
3.03078e-05
4.0144e-05
-6.21304e-05
6.55768e-06
-4.02806e-05
7.68165e-05
-2.30572e-05
2.42749e-06
-2.36235e-05
-7.65698e-06
1.05577e-06
-7.5846e-05
1.89049e-05
4.24921e-05
2.7332e-06
-4.68802e-05
-0.000111356
2.32973e-05
1.92826e-05
1.66974e-06
4.11418e-05
-1.26258e-05
3.11481e-06
-2.15394e-05
-7.41892e-05
3.57798e-05
1.81666e-05
-4.43207e-05
1.3806e-05
2.49417e-05
-1.40066e-05
-5.45263e-05
-1.59671e-05
4.84831e-05
-4.49899e-06
-0.000139603
5.79739e-05
3.08062e-05
0.000100899
-3.72755e-05
3.82724e-05
1.96727e-05
-2.19462e-05
-3.16998e-05
-3.15027e-05
5.79793e-05
8.84749e-05
-9.06712e-06
-5.99883e-05
9.21858e-06
8.46398e-06
-1.86265e-08
-2.07854e-05
-3.90373e-05
0.000130275
-3.43211e-05
-4.70515e-05
5.37119e-05
-2.79688e-06
2.82261e-06
-3.79189e-05
-6.05412e-05
4.75423e-05
4.84365e-05
-1.75376e-05
3.74629e-05
-5.19101e-05
4.18175e-05
3.39495e-05
-6.99733e-05
2.7366e-05
3.8806e-05
1.67808e-05
-5.26784e-05
6.28693e-05
-2.19622e-05
-4.31013e-05
-7.40308e-06
-2.66789e-05
4.25472e-05
3.64985e-06
2.7573e-05
-4.73866e-05
-6.43684e-06
3.03094e-05
-2.263e-05
-8.19346e-05
-4.9582e-05
1.36237e-05
3.36365e-05
4.53526e-05
-3.78174e-05
6.72055e-05
-2.02062e-05
-6.2304e-05
4.74692e-05
4.62761e-05
1.24054e-05
3.8288e-05
2.15034e-05
5.87146e-05
-6.50001e-05
-4.25662e-05
-1.3412e-05
4.39063e-05
4.78703e-05
-2.23207e-05
-6.05178e-05
1.98279e-06
-2.43762e-06
-3.00118e-05
1.48922e-05
2.92041e-05
7.28872e-05
7.06635e-05
-3.58252e-05
-0.000140627
2.58461e-05
1.20269e-06
-2.88257e-05
-4.697e-05
5.72427e-05
3.12583e-05
1.75565e-05
-0.000107817
-1.58474e-05
1.13324e-05
3.99516e-05
3.28139e-05
-4.30102e-05
3.20361e-05
3.74883e-05
-3.91931e-05
2.83304e-05
3.71942e-05
-1.37142e-05
3.56367e-05
-5.44153e-05
8.30453e-05
3.0324e-05
-1.94274e-05
-2.67294e-05
6.84282e-05
4.1218e-05
-2.91595e-05
3.35346e-05
3.92137e-05
3.68367e-05
-3.48368e-05
-2.81516e-05
1.4167e-05
3.52946e-05
-7.15666e-05
-2.16158e-05
4.6005e-05
3.64988e-05
2.3186e-05
-3.1236e-05
-7.13489e-05
2.25484e-05
-3.5272e-05
7.69857e-05
-4.16433e-05
-1.37861e-05
7.45142e-05
-5.40667e-05
4.00434e-06
-1.77849e-05
-5.58048e-05
2.01225e-05
5.96012e-06
5.0582e-05
6.31157e-05
-6.58249e-05
8.14188e-05
-4.3224e-05
-2.44335e-05
2.67203e-05
4.3941e-06
9.56829e-06
7.65547e-06
4.39084e-06
-4.22163e-05
2.1703e-05
1.01274e-05
-1.5635e-05
-7.88148e-05
-2.79713e-05
-7.33149e-06
2.62831e-05
6.22834e-06
2.38391e-05
-8.04104e-06
5.26163e-05
3.00958e-05
-3.07952e-05
-8.6859e-05
1.14746e-05
3.87336e-05
1.11599e-05
-2.85617e-05
-9.12487e-06
-2.48151e-06
2.21191e-05
-3.22959e-06
2.53442e-05
2.25459e-05
3.20966e-05
-2.08738e-05
-3.06289e-06
6.05558e-06
-3.41388e-06
3.49664e-05
-2.44874e-05
5.34739e-05
1.96628e-05
1.27888e-05
-1.15687e-05
2.92526e-05
2.87069e-06
3.39593e-05
-1.87164e-05
-2.88617e-06
-6.90417e-05
2.46685e-05
-5.03904e-06
-1.26838e-05
2.05977e-05
-2.63399e-05
-2.6616e-06
-3.02469e-05
-7.38936e-05
-1.16541e-05
0.000124286
-9.6718e-05
2.30566e-05
4.08877e-05
1.1208e-05
1.89695e-05
2.29746e-05
-6.504e-05
-1.85563e-05
-3.58941e-05
9.88762e-06
-2.25086e-05
-0.000114619
5.06439e-05
-0.000120174
-5.2155e-05
0.000129995
-2.85542e-05
-3.29316e-05
1.3981e-05
-3.08803e-06
-4.58467e-06
-6.87176e-05
5.01168e-07
2.54062e-05
-3.06813e-05
-4.83696e-05
-2.09836e-05
3.77463e-05
3.99078e-05
1.09905e-05
-3.37757e-05
2.43066e-05
4.91921e-05
4.58609e-05
-7.13919e-05
-6.57422e-05
-4.48681e-05
5.14662e-05
2.45101e-06
-1.54704e-06
-6.96708e-05
3.42727e-07
-1.04236e-05
6.89435e-06
-2.29037e-05
-2.35555e-06
-3.0622e-05
3.27413e-05
-3.22657e-06
-1.0337e-05
-2.52565e-05
2.8462e-05
9.52235e-05
-3.02619e-05
3.21711e-05
4.43811e-05
-4.54087e-05
-0.000101101
-3.30771e-05
0.00011101
6.25446e-05
-5.28281e-05
-0.000107186
-1.18125e-05
6.85671e-05
3.46117e-05
-5.40466e-05
-5.21374e-05
4.75172e-05
-4.06372e-05
-0.000119436
6.12026e-05
-1.81563e-05
-3.11729e-05
0.000105493
-4.54735e-05
-9.29438e-05
-5.38456e-05
9.50543e-06
-5.54989e-05
1.67227e-05
4.28187e-06
-7.2369e-05
6.52438e-06
4.59247e-05
6.77758e-06
-2.06684e-06
5.32221e-05
2.83384e-05
-3.75982e-05
-4.85512e-05
0.000104193
-1.62807e-05
-5.7274e-06
-2.96999e-05
-2.67266e-06
-4.58122e-05
8.22789e-06
-1.31114e-05
-4.38888e-05
-3.36712e-05
-5.49546e-05
4.80603e-05
-3.43905e-05
5.50934e-05
-3.2677e-05
-2.49938e-05
-9.60904e-06
3.26966e-05
-4.34382e-05
8.21742e-05
3.99048e-06
1.01073e-05
-2.64165e-05
-1.68534e-06
5.18315e-05
-5.05238e-05
7.6534e-05
-2.69967e-05
-2.84475e-05
5.25324e-06
1.91287e-05
5.75276e-05
-1.55072e-05
1.41478e-05
1.54799e-05
9.67542e-05
-2.60592e-05
2.79688e-06
-6.86488e-05
-4.36429e-06
5.35534e-06
-6.22706e-07
-1.12267e-05
2.76122e-05
-7.06455e-05
2.38862e-05
3.6464e-05
-5.86128e-06
-1.47321e-05
5.85358e-05
-1.46404e-06
5.05126e-07
-8.36363e-06
-6.68818e-05
-7.4585e-06
-5.66775e-05
5.49139e-05
-1.55687e-05
-6.51167e-05
1.93969e-05
-2.50089e-05
1.49552e-05
4.44496e-05
-8.87841e-06
-5.64917e-05
-7.07048e-05
-8.34139e-06
-2.96298e-05
-2.15298e-06
-1.83214e-05
-1.89291e-06
-0.000102778
8.74815e-06
3.24822e-05
3.07965e-05
-0.000103662
-3.61556e-05
2.02426e-05
8.39116e-05
4.75254e-06
-1.31454e-05
3.19695e-05
7.1479e-07
-3.71367e-05
-7.51378e-05
-6.92118e-05
-2.21189e-06
-7.097e-05
1.36718e-06
-4.37512e-05
5.21014e-05
-3.20333e-05
-2.11226e-05
9.38156e-06
-1.06089e-06
4.85126e-06
-2.59301e-05
5.72978e-05
-2.03841e-05
4.02202e-05
1.71226e-05
-4.36113e-05
4.79119e-06
-4.09898e-05
-3.4878e-07
2.30946e-05
-3.31625e-05
1.34478e-05
1.23585e-05
-2.61036e-05
-4.63816e-05
1.17681e-05
-4.40201e-05
0.000100773
4.16171e-05
5.95759e-05
5.7274e-06
3.63565e-06
3.72172e-05
-2.83868e-05
-2.65328e-05
-3.8703e-05
-3.32445e-05
-2.94531e-06
-4.83473e-06
-7.42382e-05
-9.21184e-05
-4.12924e-05
9.36042e-05
1.79687e-05
2.46145e-05
5.07903e-05
-3.90917e-05
-4.86935e-05
-6.07771e-05
2.9187e-05
-7.01522e-05
2.39774e-05
5.71007e-05
1.4381e-05
-8.54447e-05
6.48923e-05
5.64102e-06
1.1501e-05
-0.000120716
5.33743e-05
7.3608e-05
5.39143e-06
1.38736e-05
1.18414e-05
-9.65106e-06
3.66961e-05
-3.03433e-05
4.71822e-05
6.1725e-05
-4.68118e-06
-4.04329e-05
-2.98403e-05
4.83426e-06
-1.19209e-06
4.36944e-05
-1.84984e-06
-1.1377e-05
-1.70611e-05
7.82479e-05
-4.5835e-06
1.79145e-05
-3.62858e-05
-7.78638e-05
7.38351e-05
-9.19305e-05
-5.20819e-06
2.09287e-05
2.30607e-06
7.05894e-05
3.83815e-05
7.42101e-06
5.50145e-05
-1.0145e-05
4.60942e-05
-1.68377e-05
-5.88741e-05
-4.91897e-05
5.14218e-05
5.45881e-05
-1.98529e-05
5.8101e-05
3.02006e-05
1.38802e-05
2.24964e-05
6.25569e-05
6.90098e-06
-8.80085e-05
-1.34254e-05
-5.00784e-06
4.87003e-05
5.99247e-05
6.30915e-05
1.4262e-06
2.14423e-05
-2.66382e-05
-9.90415e-06
-6.22042e-05
-1.60279e-05
3.25954e-05
-3.85357e-05
-1.90416e-05
5.31535e-05
-2.28166e-05
1.54101e-05
-4.23556e-05
-5.64847e-07
-5.11486e-05
-1.0791e-05
-0.000114607
2.06345e-05
1.91703e-05
7.28538e-05
2.73274e-05
-4.94907e-05
5.0578e-05
5.27875e-05
6.41989e-05
-7.99063e-06
4.43968e-05
-4.86517e-05
-2.58872e-05
-3.12887e-05
9.76643e-05
-4.4603e-05
-4.87095e-05
2.7045e-05
-5.04581e-05
1.36552e-05
-9.01835e-05
-0.000131356
6.04799e-05
5.67492e-05
-1.70092e-05
2.47736e-05
-9.1081e-06
5.167e-05
-8.06584e-05
3.82918e-05
3.78349e-05
1.59065e-05
-7.97608e-06
-6.6557e-06
3.57417e-05
3.13772e-05
-9.32612e-05
-4.72954e-05
-9.38078e-05
-4.97692e-05
6.8475e-05
-3.54395e-05
9.14512e-06
-3.66229e-05
3.87214e-05
1.69344e-05
4.4761e-05
-5.40495e-05
2.94939e-05
6.61318e-05
1.22407e-05
-6.64287e-05
1.13377e-06
1.48171e-05
-1.36929e-05
6.08948e-05
-9.08738e-07
7.89309e-05
9.09658e-06
5.26162e-05
-9.66367e-05
3.41135e-05
6.60564e-06
-1.27824e-05
-4.43453e-05
-2.06707e-05
3.15055e-06
-9.30857e-07
-6.30609e-05
-0.000100798
-4.15874e-05
-9.15087e-05
-4.81858e-05
5.62917e-05
-1.52462e-05
-5.2291e-05
-2.41196e-05
-1.08292e-05
-4.57691e-05
-4.23093e-05
1.19056e-05
2.83613e-05
-1.41368e-05
-5.28247e-05
-6.13478e-05
1.77325e-05
1.0733e-05
-2.08276e-05
5.9631e-05
1.79035e-06
2.51201e-05
-2.36351e-05
5.88677e-05
3.18957e-05
4.76108e-05
-7.31897e-05
7.22468e-05
-0.000100922
-6.24079e-06
6.49311e-05
8.48924e-06
3.23066e-05
-3.30666e-06
-4.32202e-05
2.37813e-06
1.9997e-05
-1.27292e-05
9.59355e-06
3.614e-05
2.75427e-05
6.92137e-05
-2.72389e-06
-6.32239e-05
-6.14545e-06
-7.61158e-06
-1.02117e-05
4.45034e-05
5.20132e-06
2.67309e-05
-6.62974e-06
-4.79876e-06
-2.94806e-05
1.43552e-05
5.69026e-06
6.79196e-05
9.01206e-06
3.43909e-05
1.84253e-05
1.29042e-05
-4.46527e-05
3.45933e-05
3.36551e-05
1.93843e-06
-1.88092e-05
4.46874e-05
-5.23893e-05
6.75371e-05
7.74651e-05
6.37188e-06
8.13848e-05
-3.18105e-05
2.20675e-05
-1.73565e-05
-2.87804e-05
-6.86576e-05
1.19236e-05
2.47906e-05
1.23705e-05
-3.48678e-05
2.16775e-05
-2.20754e-05
-3.52517e-06
1.23347e-05
1.70909e-06
2.97126e-05
-6.88564e-05
-1.33738e-05
9.18948e-05
-3.43519e-05
1.47278e-05
-1.2363e-05
4.9457e-05
2.42065e-05
-4.44684e-05
5.05935e-05
0.000106778
9.66932e-05
6.52503e-05
8.90112e-07
-7.20704e-06
-1.14561e-05
6.66908e-05
-5.44777e-06
4.01796e-05
-2.33978e-05
4.1756e-05
-3.41277e-05
-2.1398e-05
6.28142e-06
-2.62645e-05
3.58212e-05
-8.93137e-05
4.69466e-05
-3.57556e-05
3.30247e-05
2.34647e-05
-9.97116e-05
2.21338e-05
3.5702e-05
-1.87461e-05
2.13258e-05
-6.78232e-05
2.71621e-05
-5.16977e-05
5.68141e-05
4.88437e-05
-1.74803e-05
3.80413e-05
4.54171e-05
1.17883e-05
-8.37969e-06
2.07494e-05
-2.05643e-05
5.28253e-05
-7.57063e-05
-4.26278e-05
-7.67258e-06
2.04988e-05
-1.54353e-05
-3.12328e-05
1.17399e-05
6.21653e-05
4.88076e-05
4.33647e-06
-0.000127571
-5.02237e-05
-6.86673e-05
-6.60993e-05
3.0914e-05
7.61508e-05
-7.01352e-05
-7.02974e-06
9.28459e-06
4.82404e-05
3.83938e-06
8.47317e-06
-6.75765e-05
-1.85831e-05
1.21739e-05
-8.66759e-06
-3.1952e-05
-1.42829e-05
3.18396e-06
7.33021e-06
1.82408e-05
2.56514e-05
-6.78839e-05
-4.71435e-06
3.4929e-05
-5.05332e-05
1.07941e-05
-1.50145e-05
-1.63051e-05
-2.95393e-05
9.53891e-05
2.63904e-05
-1.76691e-05
-2.15014e-05
-1.27996e-05
8.03324e-06
-1.3581e-05
2.63904e-05
-7.18539e-06
-1.90848e-05
2.17279e-05
5.39324e-05
-9.03427e-05
5.79042e-05
-1.44778e-05
-1.46055e-05
-3.83225e-05
-4.54393e-05
2.61621e-05
5.74817e-05
2.07165e-05
1.80586e-05
2.61941e-05
-7.22124e-06
-2.65969e-05
2.38706e-05
-3.81793e-05
-3.29992e-05
2.86615e-05
4.19596e-06
5.34141e-05
-1.29024e-05
-4.54613e-06
9.10499e-05
1.63319e-05
1.69139e-05
-4.6327e-05
3.55743e-05
-3.91718e-05
2.29457e-05
1.72228e-05
3.08675e-06
6.80586e-05
6.7281e-05
-1.70238e-05
-7.54627e-06
4.55865e-05
-1.23872e-05
-6.61262e-06
0.000122597
3.2628e-05
1.82127e-05
2.49492e-05
-5.22535e-05
-2.22389e-05
-5.70164e-05
1.30455e-06
7.69005e-06
2.41785e-05
1.0772e-05
-5.20679e-05
1.76707e-05
6.44932e-05
-6.11884e-05
5.44069e-05
-4.49317e-05
-7.05202e-05
6.23078e-06
3.27919e-05
4.70877e-05
1.3269e-06
1.32953e-05
-7.786e-05
-2.8183e-05
-6.89249e-06
0.000112601
3.68477e-05
-3.34257e-05
4.85624e-05
3.18348e-05
1.1489e-05
6.94899e-05
0.000133271
-7.38585e-05
-4.20368e-05
-1.68968e-05
2.04113e-05
8.13254e-06
-1.95543e-05
3.47552e-05
5.0591e-05
-6.30396e-05
-4.2269e-05
1.79632e-05
5.70338e-05
-6.6706e-07
2.83981e-05
-3.47798e-05
-8.23163e-05
-3.16934e-05
-5.51022e-05
-1.69483e-05
6.43998e-05
-5.57768e-05
5.25209e-05
-0.00011234
-7.10649e-05
-1.52234e-05
-1.60274e-05
-3.59302e-05
5.28325e-05
4.40276e-05
-4.75498e-06
-6.05788e-05
-2.0325e-05
1.72128e-05
2.40915e-05
-2.15005e-05
-3.80276e-05
1.84209e-05
-5.22968e-05
-1.48041e-05
-9.04261e-05
-1.86134e-05
-1.4098e-05
0.000121307
-2.54698e-05
5.25205e-05
3.79467e-05
3.11935e-05
-3.85307e-05
-5.1026e-06
-4.49663e-05
2.6294e-05
1.12433e-05
-1.86057e-05
1.74427e-05
-3.76214e-05
8.71113e-06
-3.17954e-05
7.1465e-05
-7.47018e-05
0.000101809
5.19645e-05
3.1805e-05
1.94154e-05
4.63661e-05
-3.00515e-06
1.62403e-05
7.99989e-05
3.67616e-06
-1.37991e-05
-5.21091e-05
-5.62186e-05
2.68217e-05
-3.7802e-05
-4.78232e-05
2.88633e-05
-2.68996e-05
-1.16546e-05
-5.02805e-05
3.10767e-05
-2.00594e-05
3.8109e-05
-8.71741e-05
-4.69051e-05
1.67189e-05
4.92436e-05
9.12824e-06
1.42585e-06
-6.69414e-05
-7.27307e-05
-1.43617e-05
-9.74513e-06
-1.56976e-05
2.67376e-05
-9.21222e-05
-5.8864e-05
-1.25879e-05
5.10606e-05
-8.9749e-05
7.86015e-05
1.30894e-05
1.51683e-05
-0.000114673
-4.19714e-05
1.06476e-05
8.84158e-05
-6.75302e-06
-6.9302e-06
1.08086e-05
-9.15194e-05
-1.49582e-05
1.07788e-05
5.18087e-05
-3.28287e-05
4.25942e-05
9.43115e-06
7.85454e-07
4.03605e-05
-3.83484e-06
2.66731e-05
-2.21874e-05
6.10715e-07
2.16428e-06
1.83091e-05
-2.01633e-05
-7.52347e-05
-8.20155e-05
-4.08833e-05
3.06879e-05
3.11448e-05
-1.76032e-05
-1.1489e-05
3.875e-05
9.27388e-06
1.17529e-05
-4.44874e-05
-5.27486e-05
-4.26522e-05
9.60724e-05
-3.91062e-05
-6.17565e-05
-4.51251e-05
4.71959e-06
-4.15777e-05
-1.74739e-06
2.5766e-05
4.81146e-05
-3.50765e-05
2.89147e-05
3.42634e-05
2.19489e-05
-2.03153e-05
-2.84292e-05
2.95847e-05
6.23253e-05
1.81491e-05
-1.77096e-05
-4.22895e-05
-3.51761e-06
6.32221e-05
3.54694e-06
7.63242e-06
-5.29364e-06
1.017e-05
2.74985e-05
2.91368e-05
-2.60761e-05
-5.974e-05
8.67877e-05
3.2931e-05
-1.45724e-05
-1.42367e-05
5.72904e-05
3.84287e-06
9.81888e-05
0.000121366
-2.85939e-05
2.49979e-05
7.872e-06
-1.86715e-05
-1.7015e-05
-7.32372e-05
0.00011208
-1.25972e-05
-6.01787e-05
7.86257e-06
3.08839e-05
9.78366e-06
7.8408e-06
1.7137e-05
4.86616e-08
-2.6722e-05
-2.56813e-05
-4.13363e-05
-4.55839e-05
-1.76239e-05
-7.76572e-06
-4.82689e-05
7.13975e-05
1.64242e-05
3.01735e-05
-3.19594e-05
1.39843e-05
-1.39405e-05
-1.55889e-05
4.4764e-06
-1.6586e-05
8.27658e-05
5.56019e-05
5.67292e-06
3.54113e-05
2.86184e-06
-1.63058e-05
2.07492e-05
9.63197e-06
-1.45012e-05
-4.8888e-05
-4.07479e-05
-9.69204e-06
4.12578e-05
-2.15804e-05
-3.41531e-05
5.64967e-05
-1.37317e-05
-5.04198e-05
3.8474e-05
-2.33621e-05
-1.19605e-06
-5.94473e-05
5.95278e-06
6.40077e-05
-7.39725e-05
-2.23718e-05
-4.28874e-06
-7.43162e-05
-1.58099e-05
5.60061e-05
-2.41016e-05
5.20151e-05
4.58728e-05
-3.16426e-05
0.000122278
2.8997e-05
1.2071e-05
-2.74087e-05
-3.44684e-05
-3.20202e-05
5.98463e-05
4.27903e-05
-2.54272e-05
-1.62858e-05
4.25265e-05
4.55985e-05
-7.08053e-05
-4.5384e-05
-1.75919e-05
6.00136e-05
3.70812e-05
4.3697e-05
-7.64523e-06
2.17552e-05
1.48434e-05
1.47814e-05
3.49523e-05
1.44987e-05
-7.1735e-05
5.90794e-05
3.93526e-05
-1.62125e-05
4.74526e-05
-1.8456e-05
-3.84231e-05
8.4609e-05
5.78982e-05
5.29925e-05
-2.8294e-05
-1.40266e-05
-3.38221e-06
6.56869e-05
1.70165e-05
1.81661e-05
-1.45186e-05
-3.22154e-05
8.30216e-06
5.70649e-05
3.72089e-05
6.89618e-05
3.92869e-05
3.07865e-05
-1.59352e-05
4.17501e-05
8.47306e-06
-3.21822e-05
-1.07554e-05
-1.45927e-05
5.3932e-05
1.21887e-05
2.11236e-05
-2.64749e-05
1.12986e-05
-2.3908e-05
-1.44511e-05
1.09982e-05
-7.73487e-06
4.69037e-06
1.68594e-05
6.67057e-05
1.5799e-05
-0.00010758
-8.24993e-05
6.52322e-06
-5.85075e-05
5.17321e-05
1.84858e-05
1.66773e-05
-7.07679e-05
5.68526e-06
-1.86228e-05
-4.33426e-05
5.83279e-05
-4.15361e-05
-7.76744e-05
-1.33211e-05
-3.74748e-05
-1.09989e-06
5.06307e-05
3.43451e-05
5.21397e-05
2.95322e-05
4.71439e-05
-2.02373e-05
0.000134812
5.51657e-05
-3.8271e-05
-1.12216e-05
0.000111733
1.12818e-06
-1.38339e-05
-2.07322e-05
-1.05337e-05
5.75115e-06
2.51083e-05
-6.47183e-05
1.22271e-06
0.000118249
2.02318e-05
-6.96786e-05
-8.3458e-05
9.06893e-05
4.29547e-05
-6.09941e-05
-2.33599e-06
4.52413e-06
-2.48621e-05
-7.49843e-05
-6.30086e-06
3.39791e-05
6.28866e-05
-2.65858e-06
-2.97547e-05
-6.67728e-05
-1.08307e-05
7.42287e-06
3.03179e-05
-1.26918e-05
1.26476e-05
-3.24745e-05
-1.54036e-05
4.65962e-05
-6.06058e-07
-7.33231e-05
-3.6117e-05
3.19353e-05
5.07124e-05
5.52046e-05
-3.86606e-05
-2.71013e-05
-1.73226e-06
4.00436e-05
-1.28826e-05
1.15241e-05
2.75394e-05
1.51e-05
2.02362e-05
3.27819e-05
-0.000103583
-2.37203e-05
5.62991e-05
-3.5605e-05
-8.56416e-05
0.000101618
-2.90698e-05
2.15787e-05
-5.19503e-05
6.29341e-06
-5.95589e-05
3.80259e-06
-4.01156e-05
2.21785e-05
-9.73768e-06
6.35826e-05
-2.76124e-05
-2.54392e-05
9.06729e-05
-5.55892e-05
-3.51444e-05
1.4781e-05
-2.30937e-05
3.4685e-05
-4.10143e-05
-1.0932e-05
2.98409e-05
3.45646e-05
-4.78458e-05
-5.78742e-05
-3.7299e-05
3.58621e-05
-1.02359e-05
-1.76752e-05
3.83472e-05
4.55044e-06
-3.07264e-05
-6.31749e-05
6.19097e-06
-5.68888e-05
0.000120349
-0.000117729
-6.80871e-05
1.0187e-05
-1.02157e-05
2.82162e-05
-1.96018e-05
-6.25569e-06
3.5075e-05
9.93116e-06
-5.96482e-05
5.40572e-05
-2.97573e-05
-7.26432e-07
-9.39087e-06
-2.64803e-05
5.89008e-05
9.35844e-05
7.95013e-05
-1.68921e-05
-6.82932e-05
-7.77039e-05
4.75619e-05
-1.31712e-06
1.17447e-05
5.16308e-05
-6.31507e-05
2.2143e-05
3.45722e-05
-3.89621e-05
4.92728e-05
9.85363e-06
-2.73689e-05
-7.18012e-05
-2.20723e-06
9.41264e-06
5.68598e-05
-2.01396e-05
-8.62242e-06
7.08969e-06
9.57167e-07
-2.91977e-05
-3.67716e-05
9.87202e-07
-7.08306e-06
-7.77071e-05
4.07128e-05
2.28044e-05
-2.33533e-05
-2.82729e-05
6.35535e-06
-3.10615e-05
-2.37786e-05
5.87647e-05
3.77757e-05
-8.88545e-05
1.88746e-05
2.82157e-05
2.42066e-05
-1.97263e-05
3.13718e-05
2.6772e-05
-2.78911e-05
-1.14412e-05
4.39795e-05
-1.84719e-05
6.29015e-06
-9.41637e-06
3.67073e-05
-1.65389e-05
-2.21909e-05
-3.26342e-05
2.11536e-05
-9.05287e-05
-2.25271e-05
7.17805e-06
-1.6781e-05
-5.12949e-05
-4.15264e-05
3.02584e-05
1.87578e-05
1.34516e-05
6.79974e-05
0.000103677
-2.68698e-05
-5.62214e-05
-7.36862e-06
-8.72882e-06
-8.22113e-06
-0.000119192
3.0766e-05
9.97079e-05
7.93549e-05
2.35239e-05
2.89525e-06
3.23562e-05
6.61891e-06
-1.27403e-05
-1.12369e-05
3.50212e-06
6.08941e-05
-6.73486e-06
5.99332e-05
-9.10857e-06
-4.9344e-05
-1.25009e-05
-1.79212e-05
3.41785e-05
-3.3798e-05
7.39563e-06
5.9454e-05
0.000102923
1.58972e-05
2.0744e-06
6.60841e-05
-5.49522e-05
-6.42198e-05
4.83636e-06
5.86051e-05
-3.53623e-05
-0.000113618
-3.21863e-05
8.25222e-06
3.03732e-05
4.09433e-06
1.2588e-05
-2.57907e-05
4.03007e-06
-1.99422e-05
-0.000115459
-8.30332e-06
2.34317e-05
1.67685e-05
-9.89961e-06
-1.77941e-05
3.41064e-05
5.38377e-05
-8.90112e-07
-3.26862e-05
-1.44824e-05
1.08394e-05
2.86294e-05
1.41962e-05
-1.13214e-05
4.36337e-05
-9.70066e-06
4.36599e-05
-6.26e-06
-6.49591e-05
8.33399e-05
7.37375e-06
-2.33591e-05
-5.29963e-05
8.21927e-06
-7.6708e-05
-5.47341e-05
1.69991e-05
-2.35282e-05
6.93044e-05
-5.89245e-05
-1.58965e-05
-3.79654e-06
-4.36552e-05
1.74961e-06
6.90867e-06
-1.56339e-05
-1.26814e-05
-6.31344e-06
-2.87475e-05
6.35842e-05
-1.27363e-05
2.98874e-05
-1.94586e-05
0.000106661
-6.87315e-05
2.64263e-06
7.97834e-05
-7.28988e-05
-2.11624e-05
-1.82912e-06
-5.65487e-06
-3.07187e-05
-1.66357e-07
6.13099e-05
-4.53605e-05
-3.93693e-06
2.74236e-05
5.1001e-05
6.30203e-06
2.1523e-05
-5.9315e-05
-4.52385e-05
-4.56918e-05
-4.39738e-05
-2.38917e-05
-5.0343e-05
-2.24272e-05
-6.28908e-05
1.11943e-05
0.000117078
1.08844e-05
1.60327e-06
7.11565e-06
-1.24834e-05
-9.7961e-05
1.17285e-05
-2.43352e-05
-6.52868e-05
-4.57342e-05
9.77492e-05
-2.8451e-05
2.46856e-05
2.89705e-05
-3.3951e-05
9.1926e-05
-5.06383e-05
-3.13995e-05
4.18164e-07
2.26257e-05
5.23939e-05
-4.6351e-05
3.01981e-06
-7.25877e-05
3.62425e-05
4.53796e-05
5.1028e-05
4.96124e-05
1.14621e-05
6.31448e-06
1.38576e-05
1.41445e-06
1.35626e-05
-5.94297e-05
-5.2609e-05
-3.14448e-05
3.6899e-05
-1.13051e-06
4.39375e-06
1.65976e-05
1.01096e-05
-4.56735e-05
-5.67071e-05
-2.16058e-05
3.75346e-06
3.02105e-05
2.47175e-05
-3.70553e-05
-4.68162e-05
-8.03272e-05
-3.89204e-05
8.46456e-05
4.35198e-05
1.98974e-05
-8.17562e-06
-6.95733e-06
-5.38764e-05
3.58443e-05
-6.18513e-05
7.90432e-05
-1.59484e-05
-3.99173e-05
-6.26177e-05
3.5122e-05
5.15338e-05
1.97114e-06
-3.47046e-06
-9.94967e-06
5.45722e-05
-4.35938e-05
-3.20028e-05
3.5851e-05
-2.33708e-05
-7.19365e-06
3.16272e-05
-2.36793e-05
4.79082e-05
6.11598e-05
-1.50184e-05
5.8336e-05
-1.60108e-05
-5.55497e-05
-4.11186e-05
3.92949e-05
8.73667e-05
-9.01835e-06
2.39069e-05
5.31233e-05
-2.11783e-06
3.75923e-05
-6.11142e-05
-5.37822e-05
4.75657e-05
-2.9743e-05
-7.41594e-05
-1.3014e-05
3.82937e-06
-4.95898e-05
-1.00632e-05
1.4806e-05
3.36766e-06
-4.7756e-05
-3.26617e-05
4.77978e-06
4.40959e-05
4.04313e-05
-4.65778e-05
-4.65791e-05
9.95374e-06
6.58092e-05
1.77759e-05
-1.76013e-05
-0.000102062
4.74706e-05
-2.01669e-05
-7.7755e-06
-8.79902e-06
4.50332e-05
-5.59143e-06
-5.70057e-05
-1.93107e-05
-3.39668e-05
4.75908e-05
2.16507e-05
-2.22094e-05
-2.47792e-05
-2.54151e-05
-5.89027e-06
-1.15657e-05
-4.1318e-05
-4.02358e-05
1.20618e-06
-4.48265e-05
2.04255e-05
3.38047e-06
-2.82918e-05
3.01638e-05
9.3485e-06
-6.71297e-05
-4.05737e-05
7.09337e-05
-3.39556e-05
-2.67515e-05
2.17739e-05
1.56353e-05
1.44393e-05
-8.90205e-06
-1.1994e-05
1.44324e-05
8.70285e-05
-9.69274e-07
1.24229e-05
-5.59282e-05
-1.92776e-05
3.90809e-05
3.06987e-06
-4.05496e-05
7.56606e-06
6.72846e-05
3.94991e-05
-7.4754e-05
-3.48644e-05
2.46884e-05
-5.16151e-05
3.76685e-06
-4.08546e-05
-1.83191e-05
8.3284e-05
-3.53508e-05
-3.56361e-05
-9.10182e-06
-2.3704e-05
-7.6158e-05
-4.31733e-05
-3.44521e-05
3.03324e-05
-5.93204e-05
-4.43421e-05
-1.38483e-05
2.8014e-05
4.43453e-05
7.11228e-06
-4.1828e-07
-3.37955e-05
5.63175e-05
4.62115e-05
-7.51624e-05
0.000106831
-4.85462e-05
-1.38164e-05
-8.41799e-07
-1.47609e-05
-6.57005e-05