# vtk DataFile Version 1.0
Net Charge Density
ASCII
DATASET STRUCTURED_POINTS
DIMENSIONS 256 128 1
ORIGIN 0 0 0
SPACING 0.15625 0.15625 1
POINT_DATA 32768
SCALARS rhonet float
LOOKUP_TABLE default
-3.89642e-06
-9.51277e-05
0.000144792
9.63222e-05
3.56839e-05
0.000120451
-0.000118445
9.1858e-05
0.000154216
2.28995e-05
-3.75605e-05
0.000108725
0.000103821
7.94453e-05
0.000109346
4.99608e-05
8.77434e-05
0.000140236
4.05881e-05
-6.79104e-05
-6.40727e-06
0.000141859
0.000144767
4.77823e-05
3.72679e-05
2.07425e-05
7.74217e-05
9.0589e-05
-1.35215e-05
-7.27429e-05
5.23027e-05
3.97235e-05
4.36691e-05
6.90084e-05
1.24415e-05
0.000171713
1.68073e-05
7.28728e-05
7.73577e-05
-5.53089e-06
2.29325e-05
6.83183e-06
0.000136404
9.39809e-05
2.0939e-05
1.8683e-05
-3.16135e-05
6.95549e-05
0.000116214
7.88725e-05
-1.20082e-05
2.49782e-05
8.34423e-05
0.000148995
3.55956e-05
1.75044e-05
0.000151011
-5.17475e-05
5.67781e-06
7.16954e-05
5.02797e-05
6.06021e-05
7.16827e-06
8.01801e-05
8.22492e-05
-8.03835e-05
4.41822e-05
0.000136175
4.09955e-05
4.82831e-05
7.92337e-05
3.67112e-05
-2.69159e-05
4.96674e-05
-1.15018e-07
5.11557e-05
4.20862e-05
-3.83084e-05
9.21623e-05
0.000106615
8.71845e-05
2.54081e-05
7.49615e-05
0.000101106
4.54682e-05
-4.48013e-06
-1.66913e-05
6.70482e-05
0.000119669
-2.34874e-05
9.00027e-05
-1.47955e-05
-3.9053e-05
-6.21413e-06
-8.99179e-05
5.22715e-05
0.000157961
2.40975e-05
9.16881e-05
-2.49445e-05
0.000157723
9.09189e-05
-3.16941e-06
9.47252e-05
3.90378e-05
0.00013097
-2.58675e-07
-6.85493e-05
2.66242e-06
7.39996e-05
0.00013342
5.7928e-05
2.02986e-05
3.31157e-05
8.04215e-05
4.36604e-05
1.22658e-05
7.49689e-05
5.09603e-05
4.32277e-05
-3.98805e-05
-3.45636e-05
4.04444e-05
2.44897e-05
0.00011572
6.60871e-05
1.8255e-05
8.13095e-05
1.99638e-05
-1.88099e-05
0.000119796
9.26163e-05
-2.24425e-06
3.77483e-05
2.03245e-05
6.79702e-06
4.4609e-05
-3.1916e-05
4.68972e-05
-1.15026e-05
-4.98407e-05
2.32954e-05
2.09622e-05
0.000160761
9.88224e-05
2.06393e-06
0.000137836
1.15247e-05
-3.11243e-05
0.000132418
1.78271e-05
2.91318e-05
0.000108428
-8.34558e-06
3.45042e-05
4.32301e-05
5.74626e-06
3.4271e-05
-5.27618e-06
1.75425e-05
7.67778e-05
2.50086e-05
0.000112709
-2.20691e-05
3.25853e-05
2.55234e-05
5.84616e-05
-6.12719e-05
0.000105448
0.000137295
2.50293e-05
4.32238e-05
7.45822e-05
0.000111579
-2.0268e-05
-8.13371e-06
8.7293e-05
-8.23226e-05
1.15581e-05
3.31807e-05
8.87689e-05
-7.06003e-05
-3.1811e-05
5.65371e-06
1.04989e-05
7.98535e-05
4.14201e-05
7.20926e-05
0.000102554
7.46856e-05
2.48842e-05
0.000198126
8.16124e-05
-6.56992e-05
6.24196e-05
0.000201229
4.75226e-05
8.32758e-05
7.86672e-05
-1.63089e-05
5.95991e-05
0.000149169
4.39014e-05
3.83356e-05
-1.00757e-05
6.97712e-05
-5.98881e-05
5.34237e-05
6.86803e-05
8.57904e-05
6.81023e-05
0.000137439
0.000106096
-2.40523e-05
0.000111081
-0.000131281
0.000102691
9.90945e-05
-5.28728e-05
-3.79207e-05
8.69744e-05
0.000114877
0.000176991
3.40519e-05
7.95296e-05
5.67448e-05
-3.69132e-05
-1.51402e-05
8.69033e-05
6.86067e-05
6.2288e-06
4.16542e-05
2.36372e-05
2.60695e-05
0.000121307
-3.55702e-05
-2.0577e-05
2.75015e-05
5.94513e-05
8.97981e-06
1.84993e-05
8.66944e-05
-5.82665e-05
-3.0722e-07
2.65902e-05
-1.44098e-05
-2.21964e-05
-3.95469e-05
0.000128655
-4.29619e-06
2.10488e-05
-3.85131e-05
0.000102293
2.14375e-05
2.40529e-05
4.18611e-05
-0.0001049
2.47047e-05
-6.30287e-05
-2.51192e-05
-2.38874e-05
5.12262e-05
-2.60446e-05
-7.5764e-05
4.98928e-05
-6.60464e-05
-4.29002e-05
2.33414e-05
-5.99087e-05
-8.02731e-05
3.00235e-06
-4.24264e-05
4.66278e-06
1.08919e-05
-2.15758e-05
-4.06057e-06
-5.82074e-05
-6.74939e-05
-0.000106138
-1.79196e-05
-2.00458e-05
-5.72714e-05
-2.52769e-05
7.72963e-06
-3.07411e-05
-8.53871e-05
-3.53892e-05
-8.36118e-06
2.74421e-05
-7.95682e-05
-6.67487e-05
2.31332e-05
-0.000103178
-3.37883e-05
1.98334e-05
-8.20331e-05
-5.15864e-05
-4.38412e-05
8.67317e-06
3.55998e-05
-2.47123e-05
4.87431e-06
-0.000112385
-3.15169e-05
3.88798e-05
-3.39416e-05
-6.56133e-05
-4.11931e-05
-3.17382e-05
2.98229e-05
-2.85319e-05
-3.54565e-05
-2.34859e-05
-0.00011611
1.48108e-05
-3.37933e-05
4.56297e-05
-5.12684e-05
-5.72854e-05
-3.73449e-05
-3.01476e-05
-6.05672e-05
-1.00285e-05
-7.96346e-05
-0.000109192
1.21045e-05
-4.39815e-05
9.0173e-06
-1.84355e-05
1.7242e-05
-5.13531e-05
-1.04336e-05
4.76097e-05
-2.54941e-05
5.74087e-05
2.16183e-07
-3.24124e-05
-5.04446e-05
-8.22559e-05
2.84824e-05
2.44663e-05
-6.1695e-05
-0.000158637
-4.16982e-05
-6.58911e-08
-1.69135e-05
8.77329e-06
5.33127e-05
3.1559e-06
-1.07943e-05
2.47139e-05
-5.96559e-06
3.43238e-05
-2.7311e-05
-6.84685e-06
-1.89466e-06
-4.36438e-05
-0.000106617
-3.96519e-05
-2.96771e-05
-3.55603e-05
1.64218e-05
-5.91235e-05
-4.27185e-05
-1.06683e-06
-5.99958e-06
5.43522e-05
-3.54239e-05
-7.13797e-05
-7.13193e-05
4.017e-05
1.15474e-05
-5.2352e-05
-1.11546e-05
9.64513e-06
3.18991e-05
-8.57748e-05
1.39617e-05
-6.1379e-05
-7.7415e-06
-3.48629e-05
-1.67094e-05
-4.55658e-05
-6.96026e-05
1.70253e-05
-4.88102e-05
-2.07968e-05
1.59817e-05
-1.05534e-05
-2.35448e-05
-1.24413e-05
-3.31046e-05
-4.60121e-05
-1.33578e-05
-4.22456e-05
-8.323e-06
-5.94475e-05
-7.82579e-05
8.69727e-06
-2.01946e-06
-8.38247e-05
1.05489e-05
-3.22358e-05
-4.36759e-05
-0.000117681
-8.72544e-06
-3.99575e-05
-3.83079e-05
-7.16749e-05
9.37073e-06
3.00045e-05
-1.70413e-05
-2.39991e-05
-1.85578e-06
-5.11222e-05
-2.02558e-05
-8.13482e-05
-6.40947e-05
3.6243e-05
-8.02707e-05
-7.56315e-06
2.37466e-05
2.21166e-05
-5.27814e-05
-2.42563e-06
3.60706e-05
-9.46563e-05
1.02371e-05
-2.21478e-05
3.97031e-05
-4.13512e-05
-2.5548e-05
-5.70074e-06
3.04059e-05
-6.90697e-05
-4.77678e-05
3.67505e-05
-4.79689e-06
2.05939e-06
-4.86567e-05
-0.000107547
-6.60247e-05
-2.66004e-05
-2.24794e-05
-9.32952e-06
-1.88572e-05
-0.00010145
6.3224e-06
3.6959e-05
4.61075e-06
-1.08487e-05
-2.36548e-05
-8.50841e-05
-3.90916e-05
4.81098e-05
-6.97747e-06
-7.51882e-05
-6.46278e-05
-4.37899e-05
3.07563e-05
-5.53513e-05
1.83086e-06
-5.12167e-05
9.71672e-05
1.17974e-05
-4.14071e-05
-5.22411e-05
-4.83998e-05
-4.73997e-05
3.21255e-05
-3.5083e-05
-7.29867e-05
1.69827e-06
-2.53876e-05
-1.98882e-05
4.5062e-06
-1.73203e-05
7.05679e-05
5.70898e-05
-6.70662e-05
-3.48982e-05
-2.73379e-05
-7.02045e-05
-2.06066e-05
2.42672e-05
8.58866e-05
-8.70347e-05
6.93393e-06
-4.3454e-05
-3.62699e-05
6.90327e-05
3.75877e-05
-6.27587e-05
-4.99177e-06
2.55418e-05
-5.11215e-05
2.26246e-05
-1.34831e-05
-4.80209e-05
-1.98238e-05
3.05497e-06
3.73244e-05
3.42681e-05
-1.23484e-05
-2.3168e-05
-0.000132199
-1.67056e-07
-7.60681e-06
5.12578e-05
-7.35302e-06
-7.36322e-05
5.01669e-06
-3.30425e-05
-1.99047e-06
5.00252e-05
-7.79785e-06
-2.33892e-05
-8.47992e-06
1.05414e-06
-1.92294e-05
7.13235e-05
-5.15232e-05
7.82323e-06
3.11629e-05
6.5343e-05
-4.67909e-05
-2.90645e-05
-1.149e-05
-2.49568e-05
-9.34284e-05
-2.04821e-05
3.51591e-05
4.88632e-05
3.64082e-05
-1.64527e-05
3.77693e-05
6.1458e-05
-4.75242e-05
4.4845e-05
4.40084e-05
9.82266e-06
-5.10864e-05
1.23077e-05
2.34442e-05
7.04307e-05
4.96678e-05
-3.57145e-05
2.25287e-05
5.27408e-06
-2.51166e-05
4.80092e-05
3.4039e-05
2.11627e-05
-2.89197e-05
-7.34263e-05
2.16753e-05
3.48731e-05
1.42097e-06
-4.63354e-05
1.81701e-06
-1.65713e-05
5.22444e-05
1.92712e-05
-4.25102e-05
-9.05945e-05
6.88434e-06
2.94279e-05
9.4329e-06
3.90761e-05
-4.01762e-05
2.79779e-05
-3.30703e-05
9.02759e-05
1.87058e-05
2.19358e-05
-2.38947e-05
3.89218e-05
7.95069e-05
-1.43005e-06
-1.07869e-05
-4.31233e-05
-5.63422e-05
3.65558e-05
5.69131e-06
-2.9766e-05
3.18503e-05
-3.75104e-05
-1.97687e-05
6.36963e-05
5.06414e-05
-4.80589e-05
-4.18767e-05
-9.31288e-06
-2.6356e-05
-1.33656e-05
5.09447e-05
7.41071e-05
-1.38807e-05
-5.52128e-05
-6.02388e-05
2.25474e-05
4.01649e-05
-3.56471e-05
4.60854e-05
6.04023e-05
1.00425e-05
-2.72851e-05
-6.84023e-05
1.03845e-05
-3.90662e-05
-6.67312e-05
1.89329e-05
-3.86646e-05
-7.26082e-05
1.55342e-05
3.44657e-05
-9.18226e-06
-2.52392e-05
3.49993e-05
6.71942e-05
-7.81403e-06
-2.34852e-05
1.90868e-05
-3.45567e-05
-3.24671e-06
3.17629e-05
-4.33618e-05
-4.44562e-05
-1.2916e-05
6.19071e-05
-1.54718e-05
-1.92423e-05
-9.34117e-07
1.07801e-05
-2.67862e-05
6.43283e-05
6.2841e-07
3.1611e-05
-3.4544e-05
-2.02109e-05
3.29814e-05
-8.92975e-06
-5.33771e-05
-6.58383e-05
-1.97741e-05
2.38314e-06
3.65477e-05
8.36805e-06
-1.87801e-06
1.48285e-05
-2.75739e-05
4.24772e-05
2.79525e-05
9.69104e-05
6.6583e-05
1.94266e-05
1.45672e-05
-1.36637e-05
5.90173e-05
5.77695e-05
-3.53303e-05
8.65558e-05
-1.88483e-05
-2.10222e-05
-5.39365e-05
1.12341e-05
-1.22987e-05
7.03166e-05
-1.07872e-05
6.14906e-06
5.77938e-05
3.47521e-05
-3.56397e-05
-5.85616e-06
4.38269e-05
2.99957e-05
1.48881e-05
3.09409e-06
-6.2997e-05
1.44141e-05
-9.34469e-05
4.10879e-05
-3.34161e-05
-7.2972e-05
6.78678e-06
-4.31375e-05
3.26065e-05
-5.40693e-05
-3.51892e-05
-7.38061e-06
-3.46785e-05
7.78178e-06
5.28593e-05
1.66988e-05
-1.61468e-06
7.61894e-05
-2.89548e-06
5.27898e-05
3.30996e-05
2.69053e-05
3.20118e-05
-4.14014e-05
-7.91216e-05
6.70424e-06
-3.71062e-05
3.38536e-07
3.12877e-05
2.55894e-05
4.62425e-05
-7.34511e-06
3.85572e-05
-1.82483e-05
8.60398e-05
-3.51761e-05
-2.42108e-05
-2.44782e-05
3.96878e-05
3.96362e-05
-5.59585e-06
-1.59822e-05
5.26489e-05
-3.12825e-05
-9.51334e-06
1.32087e-05
3.03081e-05
4.01443e-05
-6.21305e-05
6.55791e-06
-4.02804e-05
7.68165e-05
-2.30575e-05
2.42726e-06
-2.36237e-05
-7.65687e-06
1.05577e-06
-7.5846e-05
1.89051e-05
4.24924e-05
2.73343e-06
-4.68806e-05
-0.000111356
2.32972e-05
1.92823e-05
1.66986e-06
4.11415e-05
-1.26257e-05
3.11481e-06
-2.15393e-05
-7.41894e-05
3.57796e-05
1.81668e-05
-4.43212e-05
1.38059e-05
2.49416e-05
-1.40064e-05
-5.45263e-05
-1.59671e-05
4.84831e-05
-4.49922e-06
-0.000139603
5.79748e-05
3.08057e-05
0.000100899
-3.72755e-05
3.82719e-05
1.96724e-05
-2.19462e-05
-3.16999e-05
-3.15025e-05
5.79793e-05
8.84752e-05
-9.06747e-06
-5.99886e-05
9.2187e-06
8.46351e-06
-1.81608e-08
-2.07847e-05
-3.90375e-05
0.000130274
-3.43213e-05
-4.70515e-05
5.37115e-05
-2.79676e-06
2.82272e-06
-3.79187e-05
-6.05412e-05
4.75426e-05
4.8436e-05
-1.75369e-05
3.74629e-05
-5.19105e-05
4.18175e-05
3.39495e-05
-6.99725e-05
2.73662e-05
3.88061e-05
1.67808e-05
-5.26785e-05
6.28688e-05
-2.19624e-05
-4.31011e-05
-7.40273e-06
-2.66789e-05
4.25469e-05
3.6502e-06
2.75731e-05
-4.73881e-05
-6.43719e-06
3.03097e-05
-2.26297e-05
-8.19343e-05
-4.95814e-05
1.36235e-05
3.36369e-05
4.53524e-05
-3.78173e-05
6.72052e-05
-2.02056e-05
-6.23041e-05
4.74697e-05
4.62758e-05
1.24058e-05
3.82884e-05
2.1503e-05
5.8714e-05
-6.49998e-05
-4.25664e-05
-1.3412e-05
4.39065e-05
4.78699e-05
-2.23207e-05
-6.05178e-05
1.98337e-06
-2.43762e-06
-3.00114e-05
1.48923e-05
2.92048e-05
7.28874e-05
7.06634e-05
-3.5825e-05
-0.000140627
2.58458e-05
1.2035e-06
-2.88252e-05
-4.69701e-05
5.72427e-05
3.12591e-05
1.75564e-05
-0.000107817
-1.58474e-05
1.13321e-05
3.99518e-05
3.28142e-05
-4.30102e-05
3.2036e-05
3.74878e-05
-3.91937e-05
2.83306e-05
3.71942e-05
-1.37143e-05
3.56366e-05
-5.4416e-05
8.30449e-05
3.03236e-05
-1.94275e-05
-2.67294e-05
6.84281e-05
4.1218e-05
-2.91597e-05
3.35344e-05
3.9214e-05
3.68373e-05
-3.48374e-05
-2.81512e-05
1.4167e-05
3.52943e-05
-7.15666e-05
-2.16158e-05
4.6005e-05
3.64986e-05
2.31863e-05
-3.1236e-05
-7.13486e-05
2.25481e-05
-3.52726e-05
7.69856e-05
-4.16434e-05
-1.37861e-05
7.45144e-05
-5.40668e-05
4.00399e-06
-1.77845e-05
-5.58045e-05
2.01231e-05
5.95965e-06
5.0582e-05
6.31161e-05
-6.58251e-05
8.14188e-05
-4.3224e-05
-2.44331e-05
2.672e-05
4.39445e-06
9.56771e-06
7.65536e-06
4.39154e-06
-4.22162e-05
2.17025e-05
1.01272e-05
-1.56354e-05
-7.88147e-05
-2.79716e-05
-7.33137e-06
2.62837e-05
6.22869e-06
2.38402e-05
-8.04116e-06
5.26162e-05
3.00965e-05
-3.07957e-05
-8.68589e-05
1.14746e-05
3.87335e-05
1.1161e-05
-2.85619e-05
-9.12487e-06
-2.48163e-06
2.21187e-05
-3.22959e-06
2.53445e-05
2.25465e-05
3.20963e-05
-2.08745e-05
-3.06277e-06
6.05499e-06
-3.41376e-06
3.49665e-05
-2.44874e-05
5.34742e-05
1.96628e-05
1.2789e-05
-1.15689e-05
2.92528e-05
2.87115e-06
3.39586e-05
-1.87168e-05
-2.88629e-06
-6.9041e-05
2.46684e-05
-5.03892e-06
-1.2684e-05
2.05979e-05
-2.63398e-05
-2.66172e-06
-3.02475e-05
-7.38935e-05
-1.16542e-05
0.000124287
-9.6718e-05
2.30564e-05
4.08877e-05
1.12082e-05
1.89698e-05
2.29753e-05
-6.50402e-05
-1.85561e-05
-3.58942e-05
9.88785e-06
-2.25089e-05
-0.000114619
5.06439e-05
-0.000120174
-5.2155e-05
0.000129995
-2.85541e-05
-3.29316e-05
1.39812e-05
-3.0878e-06
-4.58444e-06
-6.87178e-05
5.01517e-07
2.5406e-05
-3.06815e-05
-4.83696e-05
-2.09836e-05
3.77456e-05
3.99073e-05
1.09908e-05
-3.37755e-05
2.43071e-05
4.91925e-05
4.58609e-05
-7.13917e-05
-6.57423e-05
-4.48686e-05
5.14659e-05
2.45089e-06
-1.54669e-06
-6.96707e-05
3.4261e-07
-1.04234e-05
6.89388e-06
-2.29039e-05
-2.35508e-06
-3.06218e-05
3.27418e-05
-3.22668e-06
-1.0337e-05
-2.5257e-05
2.84621e-05
9.52234e-05
-3.02623e-05
3.21709e-05
4.43809e-05
-4.54085e-05
-0.000101102
-3.30771e-05
0.00011101
6.25441e-05
-5.28278e-05
-0.000107186
-1.18128e-05
6.85671e-05
3.46117e-05
-5.40466e-05
-5.21378e-05
4.75179e-05
-4.06371e-05
-0.000119435
6.1203e-05
-1.81563e-05
-3.11731e-05
0.000105493
-4.5473e-05
-9.29438e-05
-5.38458e-05
9.50531e-06
-5.54993e-05
1.67229e-05
4.28222e-06
-7.23694e-05
6.5238e-06
4.59249e-05
6.77712e-06
-2.06672e-06
5.32216e-05
2.83382e-05
-3.75982e-05
-4.85512e-05
0.000104194
-1.62809e-05
-5.72763e-06
-2.96994e-05
-2.67255e-06
-4.58122e-05
8.22765e-06
-1.3111e-05
-4.38887e-05
-3.36707e-05
-5.49541e-05
4.80607e-05
-3.43898e-05
5.50939e-05
-3.26773e-05
-2.49946e-05
-9.60892e-06
3.26964e-05
-4.34379e-05
8.21743e-05
3.99048e-06
1.01074e-05
-2.64171e-05
-1.68476e-06
5.18314e-05
-5.05238e-05
7.6534e-05
-2.69969e-05
-2.84484e-05
5.25312e-06
1.91287e-05
5.75266e-05
-1.55076e-05
1.41477e-05
1.548e-05
9.67544e-05
-2.60593e-05
2.79746e-06
-6.8649e-05
-4.36441e-06
5.35487e-06
-6.23404e-07
-1.12273e-05
2.76114e-05
-7.06457e-05
2.38862e-05
3.64641e-05
-5.86046e-06
-1.47325e-05
5.85362e-05
-1.46439e-06
5.05941e-07
-8.36398e-06
-6.68828e-05
-7.45815e-06
-5.66773e-05
5.49136e-05
-1.55687e-05
-6.51166e-05
1.93968e-05
-2.5009e-05
1.49547e-05
4.44492e-05
-8.87772e-06
-5.64913e-05
-7.07041e-05
-8.34127e-06
-2.963e-05
-2.1531e-06
-1.83219e-05
-1.89245e-06
-0.000102778
8.74826e-06
3.24822e-05
3.0796e-05
-0.000103662
-3.61556e-05
2.02425e-05
8.39118e-05
4.75231e-06
-1.31454e-05
3.19692e-05
7.15023e-07
-3.7137e-05
-7.51379e-05
-6.92119e-05
-2.21282e-06
-7.09703e-05
1.36707e-06
-4.37517e-05
5.21007e-05
-3.20331e-05
-2.11224e-05
9.38214e-06
-1.06008e-06
4.85114e-06
-2.59297e-05
5.72975e-05
-2.03842e-05
4.02208e-05
1.71225e-05
-4.36117e-05
4.79084e-06
-4.09898e-05
-3.4913e-07
2.30947e-05
-3.31624e-05
1.34484e-05
1.23584e-05
-2.61044e-05
-4.63815e-05
1.17682e-05
-4.40201e-05
0.000100773
4.16172e-05
5.95758e-05
5.72717e-06
3.63588e-06
3.7217e-05
-2.83874e-05
-2.65322e-05
-3.87037e-05
-3.32439e-05
-2.94531e-06
-4.83438e-06
-7.42384e-05
-9.21183e-05
-4.12927e-05
9.36042e-05
1.79682e-05
2.46142e-05
5.07897e-05
-3.90918e-05
-4.86937e-05
-6.07775e-05
2.91868e-05
-7.01523e-05
2.39772e-05
5.71004e-05
1.43813e-05
-8.5445e-05
6.48925e-05
5.64079e-06
1.15009e-05
-0.000120717
5.3374e-05
7.36077e-05
5.39119e-06
1.38736e-05
1.18413e-05
-9.65106e-06
3.66953e-05
-3.03433e-05
4.7182e-05
6.17245e-05
-4.68025e-06
-4.04327e-05
-2.984e-05
4.8345e-06
-1.19209e-06
4.36947e-05
-1.84961e-06
-1.1377e-05
-1.70614e-05
7.82474e-05
-4.58397e-06
1.79142e-05
-3.62853e-05
-7.7863e-05
7.38344e-05
-9.19307e-05
-5.20842e-06
2.09286e-05
2.30619e-06
7.05895e-05
3.83817e-05
7.42113e-06
5.50142e-05
-1.0145e-05
4.60943e-05
-1.68378e-05
-5.88747e-05
-4.91897e-05
5.14213e-05
5.45881e-05
-1.98532e-05
5.81011e-05
3.02e-05
1.38807e-05
2.24962e-05
6.25565e-05
6.9018e-06
-8.80082e-05
-1.34251e-05
-5.00819e-06
4.86999e-05
5.99248e-05
6.30921e-05
1.42679e-06
2.14427e-05
-2.66384e-05
-9.90403e-06
-6.22048e-05
-1.60283e-05
3.25945e-05
-3.85363e-05
-1.90409e-05
5.31536e-05
-2.28165e-05
1.54101e-05
-4.23559e-05
-5.64498e-07
-5.11481e-05
-1.07908e-05
-0.000114607
2.06345e-05
1.91708e-05
7.28543e-05
2.73276e-05
-4.94907e-05
5.05783e-05
5.27871e-05
6.41993e-05
-7.99017e-06
4.43971e-05
-4.86514e-05
-2.58865e-05
-3.12887e-05
9.76647e-05
-4.46028e-05
-4.87093e-05
2.70448e-05
-5.04586e-05
1.36555e-05
-9.01833e-05
-0.000131356
6.04796e-05
5.67492e-05
-1.70097e-05
2.47727e-05
-9.10833e-06
5.16702e-05
-8.06588e-05
3.82916e-05
3.78349e-05
1.59069e-05
-7.97608e-06
-6.65511e-06
3.57415e-05
3.13774e-05
-9.32615e-05
-4.72954e-05
-9.38083e-05
-4.97695e-05
6.84744e-05
-3.54389e-05
9.14466e-06
-3.66224e-05
3.87214e-05
1.69342e-05
4.47606e-05
-5.40498e-05
2.94939e-05
6.61318e-05
1.22411e-05
-6.64282e-05
1.13435e-06
1.4817e-05
-1.3693e-05
6.08949e-05
-9.0932e-07
7.89308e-05
9.09658e-06
5.26166e-05
-9.66364e-05
3.41134e-05
6.60541e-06
-1.27822e-05
-4.43456e-05
-2.06705e-05
3.1502e-06
-9.30508e-07
-6.30611e-05
-0.000100798
-4.15873e-05
-9.15083e-05
-4.81858e-05
5.62919e-05
-1.52462e-05
-5.2291e-05
-2.41197e-05
-1.08294e-05
-4.57695e-05
-4.23095e-05
1.19052e-05
2.8361e-05
-1.41363e-05
-5.28246e-05
-6.13476e-05
1.77323e-05
1.07324e-05
-2.08277e-05
5.96308e-05
1.7907e-06
2.51203e-05
-2.36357e-05
5.88669e-05
3.18958e-05
4.76105e-05
-7.31895e-05
7.22463e-05
-0.000100923
-6.24068e-06
6.49311e-05
8.48924e-06
3.23068e-05
-3.30713e-06
-4.32204e-05
2.37778e-06
1.99969e-05
-1.27285e-05
9.59344e-06
3.61402e-05
2.75429e-05
6.92134e-05
-2.724e-06
-6.32236e-05
-6.14533e-06
-7.61123e-06
-1.02109e-05
4.45028e-05
5.20109e-06
2.67313e-05
-6.62985e-06
-4.79864e-06
-2.94806e-05
1.43553e-05
5.68992e-06
6.79194e-05
9.01252e-06
3.43911e-05
1.84251e-05
1.29041e-05
-4.46521e-05
3.45934e-05
3.36544e-05
1.93878e-06
-1.88092e-05
4.46881e-05
-5.23892e-05
6.75363e-05
7.74651e-05
6.37176e-06
8.13847e-05
-3.18103e-05
2.20673e-05
-1.73565e-05
-2.87803e-05
-6.86578e-05
1.19235e-05
2.47908e-05
1.23705e-05
-3.48676e-05
2.16785e-05
-2.20753e-05
-3.52541e-06
1.23346e-05
1.70909e-06
2.97126e-05
-6.88565e-05
-1.33738e-05
9.18964e-05
-3.43517e-05
1.47282e-05
-1.23634e-05
4.94566e-05
2.42071e-05
-4.44687e-05
5.05935e-05
0.000106778
9.66929e-05
6.52508e-05
8.89879e-07
-7.20704e-06
-1.14564e-05
6.66907e-05
-5.448e-06
4.01795e-05
-2.33975e-05
4.17556e-05
-3.41276e-05
-2.13981e-05
6.28037e-06
-2.6264e-05
3.58212e-05
-8.93142e-05
4.69463e-05
-3.57551e-05
3.3025e-05
2.34647e-05
-9.97121e-05
2.21337e-05
3.57018e-05
-1.87468e-05
2.1326e-05
-6.78231e-05
2.71618e-05
-5.16976e-05
5.68142e-05
4.88441e-05
-1.74809e-05
3.8041e-05
4.54158e-05
1.17879e-05
-8.37981e-06
2.07492e-05
-2.05642e-05
5.28253e-05
-7.57057e-05
-4.26269e-05
-7.6727e-06
2.04985e-05
-1.54356e-05
-3.12327e-05
1.17398e-05
6.21651e-05
4.88078e-05
4.33647e-06
-0.00012757
-5.02244e-05
-6.86676e-05
-6.60996e-05
3.09133e-05
7.61505e-05
-7.01359e-05
-7.02986e-06
9.2854e-06
4.82406e-05
3.84008e-06
8.47294e-06
-6.75761e-05
-1.85829e-05
1.21742e-05
-8.66782e-06
-3.19519e-05
-1.4283e-05
3.18396e-06
7.33091e-06
1.82409e-05
2.56519e-05
-6.7884e-05
-4.71459e-06
3.4929e-05
-5.05332e-05
1.0794e-05
-1.50147e-05
-1.63048e-05
-2.95391e-05
9.53889e-05
2.63905e-05
-1.76688e-05
-2.15019e-05
-1.27987e-05
8.03289e-06
-1.35805e-05
2.63909e-05
-7.18562e-06
-1.90845e-05
2.17281e-05
5.39327e-05
-9.03432e-05
5.79042e-05
-1.44774e-05
-1.46062e-05
-3.83225e-05
-4.54384e-05
2.61611e-05
5.74822e-05
2.07161e-05
1.80586e-05
2.6194e-05
-7.22182e-06
-2.65962e-05
2.38707e-05
-3.81795e-05
-3.29989e-05
2.86611e-05
4.19561e-06
5.34138e-05
-1.29022e-05
-4.5459e-06
9.10496e-05
1.6332e-05
1.69136e-05
-4.63275e-05
3.5574e-05
-3.91717e-05
2.29457e-05
1.72225e-05
3.0857e-06
6.80585e-05
6.72808e-05
-1.70233e-05
-7.54697e-06
4.55857e-05
-1.23878e-05
-6.61274e-06
0.000122596
3.26283e-05
1.82122e-05
2.49492e-05
-5.22543e-05
-2.22391e-05
-5.70164e-05
1.30432e-06
7.69051e-06
2.41783e-05
1.07717e-05
-5.20677e-05
1.767e-05
6.44932e-05
-6.11882e-05
5.44069e-05
-4.49319e-05
-7.05204e-05
6.23055e-06
3.27919e-05
4.70877e-05
1.32725e-06
1.32958e-05
-7.78601e-05
-2.81828e-05
-6.89295e-06
0.000112601
3.68479e-05
-3.34257e-05
4.85624e-05
3.18348e-05
1.14889e-05
6.94894e-05
0.00013327
-7.38597e-05
-4.20365e-05
-1.68975e-05
2.04111e-05
8.13312e-06
-1.95543e-05
3.47545e-05
5.05912e-05
-6.30395e-05
-4.22685e-05
1.79629e-05
5.70344e-05
-6.66594e-07
2.8398e-05
-3.478e-05
-8.23161e-05
-3.16933e-05
-5.51022e-05
-1.69484e-05
6.43996e-05
-5.57771e-05
5.25212e-05
-0.000112341
-7.10646e-05
-1.52239e-05
-1.60274e-05
-3.593e-05
5.28321e-05
4.40277e-05
-4.75487e-06
-6.0578e-05
-2.03253e-05
1.72133e-05
2.40912e-05
-2.15003e-05
-3.80279e-05
1.8421e-05
-5.22971e-05
-1.48044e-05
-9.04264e-05
-1.86139e-05
-1.40984e-05
0.000121307
-2.54698e-05
5.25197e-05
3.79474e-05
3.1194e-05
-3.85307e-05
-5.10272e-06
-4.49663e-05
2.62954e-05
1.12427e-05
-1.86051e-05
1.74431e-05
-3.76212e-05
8.71136e-06
-3.17956e-05
7.14653e-05
-7.47015e-05
0.000101809
5.19652e-05
3.18056e-05
1.94149e-05
4.63662e-05
-3.0048e-06
1.62401e-05
7.99991e-05
3.67558e-06
-1.37994e-05
-5.21084e-05
-5.62185e-05
2.6822e-05
-3.78022e-05
-4.78229e-05
2.88634e-05
-2.68989e-05
-1.16548e-05
-5.02807e-05
3.10764e-05
-2.00595e-05
3.81088e-05
-8.71739e-05
-4.69055e-05
1.67192e-05
4.92434e-05
9.12766e-06
1.42562e-06
-6.69414e-05
-7.27298e-05
-1.43613e-05
-9.74478e-06
-1.56977e-05
2.67376e-05
-9.21222e-05
-5.88648e-05
-1.25876e-05
5.10602e-05
-8.9749e-05
7.86013e-05
1.30897e-05
1.51683e-05
-0.000114672
-4.1972e-05
1.06479e-05
8.84153e-05
-6.75279e-06
-6.93044e-06
1.08087e-05
-9.15192e-05
-1.49586e-05
1.07789e-05
5.18087e-05
-3.28289e-05
4.25932e-05
9.43057e-06
7.85454e-07
4.03613e-05
-3.83495e-06
2.66731e-05
-2.2187e-05
6.10831e-07
2.16451e-06
1.83083e-05
-2.01635e-05
-7.52347e-05
-8.20161e-05
-4.08832e-05
3.06885e-05
3.11451e-05
-1.76035e-05
-1.14893e-05
3.875e-05
9.27446e-06
1.1754e-05
-4.44875e-05
-5.27486e-05
-4.26519e-05
9.60719e-05
-3.91061e-05
-6.17573e-05
-4.51251e-05
4.72076e-06
-4.15784e-05
-1.74798e-06
2.5766e-05
4.8114e-05
-3.50769e-05
2.89148e-05
3.42634e-05
2.19488e-05
-2.03149e-05
-2.84293e-05
2.95844e-05
6.23254e-05
1.81496e-05
-1.77093e-05
-4.22896e-05
-3.51807e-06
6.32226e-05
3.54694e-06
7.63219e-06
-5.29387e-06
1.01702e-05
2.74981e-05
2.91364e-05
-2.60759e-05
-5.97403e-05
8.67882e-05
3.29316e-05
-1.45728e-05
-1.42374e-05
5.72904e-05
3.84299e-06
9.81888e-05
0.000121367
-2.85937e-05
2.49977e-05
7.87165e-06
-1.86722e-05
-1.70155e-05
-7.32372e-05
0.00011208
-1.25971e-05
-6.01782e-05
7.86257e-06
3.08843e-05
9.78378e-06
7.84046e-06
1.7136e-05
4.86616e-08
-2.67229e-05
-2.56815e-05
-4.13366e-05
-4.55838e-05
-1.76239e-05
-7.76548e-06
-4.827e-05
7.13976e-05
1.64243e-05
3.01738e-05
-3.19596e-05
1.39843e-05
-1.39406e-05
-1.55892e-05
4.47629e-06
-1.65859e-05
8.27656e-05
5.56018e-05
5.67292e-06
3.54116e-05
2.86219e-06
-1.63056e-05
2.07499e-05
9.63209e-06
-1.45012e-05
-4.88885e-05
-4.0748e-05
-9.69181e-06
4.12578e-05
-2.15804e-05
-3.41528e-05
5.64966e-05
-1.37312e-05
-5.04197e-05
3.84744e-05
-2.33627e-05
-1.1957e-06
-5.94468e-05
5.95243e-06
6.40081e-05
-7.39719e-05
-2.23719e-05
-4.28862e-06
-7.43158e-05
-1.58099e-05
5.60066e-05
-2.41015e-05
5.20148e-05
4.5873e-05
-3.16427e-05
0.000122278
2.89971e-05
1.20705e-05
-2.74092e-05
-3.44678e-05
-3.20197e-05
5.98455e-05
4.27904e-05
-2.54267e-05
-1.62856e-05
4.25262e-05
4.55986e-05
-7.08054e-05
-4.53839e-05
-1.75915e-05
6.00135e-05
3.70808e-05
4.36977e-05
-7.64511e-06
2.17549e-05
1.48428e-05
1.47813e-05
3.49524e-05
1.44985e-05
-7.17345e-05
5.90794e-05
3.9353e-05
-1.62125e-05
4.74526e-05
-1.84559e-05
-3.84233e-05
8.4609e-05
5.78982e-05
5.29932e-05
-2.82947e-05
-1.40264e-05
-3.3821e-06
6.56866e-05
1.70162e-05
1.81668e-05
-1.45179e-05
-3.22154e-05
8.30204e-06
5.70645e-05
3.72089e-05
6.89621e-05
3.92864e-05
3.07856e-05
-1.59345e-05
4.17503e-05
8.47247e-06
-3.21826e-05
-1.07551e-05
-1.45925e-05
5.39322e-05
1.21888e-05
2.1124e-05
-2.64747e-05
1.12983e-05
-2.39082e-05
-1.44511e-05
1.09978e-05
-7.73557e-06
4.69002e-06
1.68595e-05
6.67052e-05
1.57991e-05
-0.00010758
-8.24991e-05
6.52322e-06
-5.85068e-05
5.17321e-05
1.8487e-05
1.66775e-05
-7.07682e-05
5.68526e-06
-1.86224e-05
-4.3344e-05
5.83287e-05
-4.15358e-05
-7.76743e-05
-1.33211e-05
-3.74751e-05
-1.09978e-06
5.06312e-05
3.43446e-05
5.21399e-05
2.95315e-05
4.71445e-05
-2.02372e-05
0.000134813
5.51662e-05
-3.8271e-05
-1.12217e-05
0.000111733
1.12818e-06
-1.38334e-05
-2.07324e-05
-1.05335e-05
5.75162e-06
2.51085e-05
-6.47181e-05
1.22283e-06
0.00011825
2.02316e-05
-6.96783e-05
-8.34579e-05
9.06888e-05
4.2954e-05
-6.09941e-05
-2.33634e-06
4.5239e-06
-2.48624e-05
-7.49833e-05
-6.30144e-06
3.39793e-05
6.28862e-05
-2.65904e-06
-2.97547e-05
-6.67726e-05
-1.08315e-05
7.42346e-06
3.03182e-05
-1.26917e-05
1.26482e-05
-3.24745e-05
-1.54036e-05
4.65962e-05
-6.06524e-07
-7.33237e-05
-3.61168e-05
3.19348e-05
5.07123e-05
5.52051e-05
-3.86605e-05
-2.71013e-05
-1.73249e-06
4.00441e-05
-1.28828e-05
1.1524e-05
2.75385e-05
1.51005e-05
2.02367e-05
3.27816e-05
-0.000103583
-2.37203e-05
5.62993e-05
-3.56047e-05
-8.56413e-05
0.000101617
-2.907e-05
2.15789e-05
-5.19507e-05
6.29341e-06
-5.95589e-05
3.80224e-06
-4.01157e-05
2.21785e-05
-9.73826e-06
6.35826e-05
-2.76128e-05
-2.54394e-05
9.06731e-05
-5.55883e-05
-3.51444e-05
1.47803e-05
-2.30935e-05
3.46852e-05
-4.10143e-05
-1.09323e-05
2.9841e-05
3.45645e-05
-4.78458e-05
-5.78745e-05
-3.72988e-05
3.5862e-05
-1.02358e-05
-1.76756e-05
3.8347e-05
4.55114e-06
-3.07256e-05
-6.31749e-05
6.1912e-06
-5.68884e-05
0.000120349
-0.000117729
-6.8087e-05
1.0187e-05
-1.02166e-05
2.82165e-05
-1.96022e-05
-6.25593e-06
3.50751e-05
9.93186e-06
-5.96482e-05
5.40575e-05
-2.97576e-05
-7.25966e-07
-9.39122e-06
-2.64801e-05
5.89003e-05
9.35844e-05
7.95013e-05
-1.68924e-05
-6.82933e-05
-7.7704e-05
4.75618e-05
-1.31782e-06
1.17449e-05
5.16307e-05
-6.31509e-05
2.21431e-05
3.45722e-05
-3.89628e-05
4.92724e-05
9.85316e-06
-2.73696e-05
-7.18011e-05
-2.20747e-06
9.41264e-06
5.68597e-05
-2.01407e-05
-8.62218e-06
7.08981e-06
9.57516e-07
-2.91977e-05
-3.67719e-05
9.87318e-07
-7.08341e-06
-7.77075e-05
4.07122e-05
2.28041e-05
-2.33534e-05
-2.82733e-05
6.35581e-06
-3.1061e-05
-2.37788e-05
5.87651e-05
3.77757e-05
-8.88542e-05
1.8874e-05
2.82152e-05
2.42066e-05
-1.97266e-05
3.13714e-05
2.67728e-05
-2.78911e-05
-1.14418e-05
4.39794e-05
-1.84719e-05
6.28957e-06
-9.41637e-06
3.67076e-05
-1.65382e-05
-2.21914e-05
-3.26342e-05
2.11537e-05
-9.05289e-05
-2.25267e-05
7.17829e-06
-1.67806e-05
-5.12953e-05
-4.15272e-05
3.02582e-05
1.87581e-05
1.34512e-05
6.79975e-05
0.000103678
-2.68697e-05
-5.62216e-05
-7.36851e-06
-8.72964e-06
-8.22078e-06
-0.000119192
3.07657e-05
9.97077e-05
7.93552e-05
2.3524e-05
2.8949e-06
3.23565e-05
6.61949e-06
-1.27406e-05
-1.12371e-05
3.50201e-06
6.08948e-05
-6.73509e-06
5.99329e-05
-9.10787e-06
-4.93445e-05
-1.25013e-05
-1.7921e-05
3.41781e-05
-3.37975e-05
7.3954e-06
5.94541e-05
0.000102923
1.58967e-05
2.07394e-06
6.6084e-05
-5.49525e-05
-6.42198e-05
4.83613e-06
5.86053e-05
-3.53621e-05
-0.000113619
-3.21864e-05
8.25233e-06
3.03723e-05
4.09468e-06
1.25878e-05
-2.57915e-05
4.0303e-06
-1.99418e-05
-0.000115459
-8.30297e-06
2.34317e-05
1.6768e-05
-9.89973e-06
-1.77937e-05
3.41057e-05
5.38374e-05
-8.89879e-07
-3.26859e-05
-1.44828e-05
1.08393e-05
2.86296e-05
1.4196e-05
-1.13214e-05
4.36332e-05
-9.69996e-06
4.36603e-05
-6.26012e-06
-6.49595e-05
8.33396e-05
7.37351e-06
-2.3359e-05
-5.29963e-05
8.21927e-06
-7.67079e-05
-5.47342e-05
1.6999e-05
-2.35284e-05
6.93034e-05
-5.89247e-05
-1.58965e-05
-3.79677e-06
-4.36557e-05
1.74996e-06
6.90867e-06
-1.56339e-05
-1.26814e-05
-6.31344e-06
-2.87476e-05
6.35847e-05
-1.2736e-05
2.98871e-05
-1.94588e-05
0.000106661
-6.87314e-05
2.64263e-06
7.97834e-05
-7.2898e-05
-2.11624e-05
-1.829e-06
-5.65476e-06
-3.0719e-05
-1.66241e-07
6.13099e-05
-4.53608e-05
-3.93717e-06
2.74235e-05
5.10009e-05
6.30191e-06
2.15229e-05
-5.93147e-05
-4.52384e-05
-4.56916e-05
-4.3974e-05
-2.3892e-05
-5.03428e-05
-2.24274e-05
-6.28908e-05
1.11945e-05
0.000117078
1.08839e-05
1.60374e-06
7.11589e-06
-1.24831e-05
-9.79605e-05
1.17279e-05
-2.43355e-05
-6.52863e-05
-4.57343e-05
9.77495e-05
-2.84512e-05
2.46854e-05
2.89713e-05
-3.39514e-05
9.19256e-05
-5.0638e-05
-3.13998e-05
4.18164e-07
2.26259e-05
5.23943e-05
-4.63509e-05
3.01958e-06
-7.25875e-05
3.62421e-05
4.53799e-05
5.10279e-05
4.96123e-05
1.14621e-05
6.31437e-06
1.38574e-05
1.41433e-06
1.35627e-05
-5.943e-05
-5.26088e-05
-3.14449e-05
3.6899e-05
-1.13097e-06
4.39421e-06
1.6597e-05
1.01095e-05
-4.56737e-05
-5.67071e-05
-2.16054e-05
3.75335e-06
3.021e-05
2.47171e-05
-3.70551e-05
-4.68157e-05
-8.03268e-05
-3.89202e-05
8.46449e-05
4.35195e-05
1.98975e-05
-8.17562e-06
-6.95733e-06
-5.38767e-05
3.58443e-05
-6.1851e-05
7.90432e-05
-1.59482e-05
-3.99173e-05
-6.26177e-05
3.51217e-05
5.1534e-05
1.97021e-06
-3.47069e-06
-9.94978e-06
5.45727e-05
-4.3594e-05
-3.20032e-05
3.58508e-05
-2.337e-05
-7.1933e-06
3.16272e-05
-2.36781e-05
4.79084e-05
6.11594e-05
-1.50179e-05
5.83358e-05
-1.60111e-05
-5.55506e-05
-4.11184e-05
3.92952e-05
8.73664e-05
-9.01858e-06
2.39064e-05
5.31233e-05
-2.11806e-06
3.7592e-05
-6.11137e-05
-5.3782e-05
4.75647e-05
-2.97431e-05
-7.41596e-05
-1.30143e-05
3.82902e-06
-4.95904e-05
-1.00626e-05
1.48064e-05
3.36743e-06
-4.77558e-05
-3.26612e-05
4.77978e-06
4.40957e-05
4.04308e-05
-4.65772e-05
-4.65792e-05
9.95398e-06
6.58104e-05
1.77757e-05
-1.76015e-05
-0.000102062
4.74707e-05
-2.01667e-05
-7.77585e-06
-8.79914e-06
4.50332e-05
-5.59178e-06
-5.70056e-05
-1.93106e-05
-3.39665e-05
4.75901e-05
2.16513e-05
-2.22097e-05
-2.47783e-05
-2.54149e-05
-5.8905e-06
-1.15656e-05
-4.13184e-05
-4.02359e-05
1.2063e-06
-4.48261e-05
2.04248e-05
3.38e-06
-2.82917e-05
3.01641e-05
9.3485e-06
-6.71301e-05
-4.05738e-05
7.09333e-05
-3.3956e-05
-2.67513e-05
2.17743e-05
1.56355e-05
1.44392e-05
-8.90205e-06
-1.1994e-05
1.4432e-05
8.70281e-05
-9.6974e-07
1.2423e-05
-5.59278e-05
-1.92776e-05
3.90809e-05
3.0701e-06
-4.05494e-05
7.56583e-06
6.72851e-05
3.9499e-05
-7.47542e-05
-3.48639e-05
2.4689e-05
-5.16148e-05
3.76708e-06
-4.08549e-05
-1.83197e-05
8.32839e-05
-3.53502e-05
-3.56364e-05
-9.10182e-06
-2.37031e-05
-7.61582e-05
-4.31736e-05
-3.44522e-05
3.03321e-05
-5.932e-05
-4.43419e-05
-1.3848e-05
2.80143e-05
4.43452e-05
7.11228e-06
-4.18629e-07
-3.37956e-05
5.63178e-05
4.62113e-05
-7.51622e-05
0.000106831
-4.85462e-05
-1.38164e-05
-8.41566e-07
-1.47611e-05