# vtk DataFile Version 1.0
Net Charge Density
ASCII
DATASET STRUCTURED_POINTS
DIMENSIONS 256 128 1
ORIGIN 0 0 0
SPACING 0.15625 0.15625 1
POINT_DATA 32768
SCALARS rhonet float
LOOKUP_TABLE default
-3.8963e-06
-9.51274e-05
0.000144792
9.6322e-05
3.56841e-05
0.000120451
-0.000118445
9.18582e-05
0.000154216
2.28997e-05
-3.75608e-05
0.000108726
0.00010382
7.94461e-05
0.000109346
4.99606e-05
8.77432e-05
0.000140236
4.05877e-05
-6.79099e-05
-6.4068e-06
0.00014186
0.000144767
4.77822e-05
3.7268e-05
2.07426e-05
7.74218e-05
9.05892e-05
-1.35215e-05
-7.27426e-05
5.23025e-05
3.97235e-05
4.36691e-05
6.90084e-05
1.24415e-05
0.000171713
1.68075e-05
7.28725e-05
7.73577e-05
-5.53089e-06
2.29316e-05
6.83218e-06
0.000136404
9.3981e-05
2.09386e-05
1.86828e-05
-3.1613e-05
6.95547e-05
0.000116214
7.88725e-05
-1.20075e-05
2.4978e-05
8.34425e-05
0.000148995
3.55951e-05
1.75047e-05
0.000151011
-5.17467e-05
5.67804e-06
7.16953e-05
5.02799e-05
6.0602e-05
7.16804e-06
8.01801e-05
8.22488e-05
-8.03831e-05
4.41823e-05
0.000136175
4.09957e-05
4.82837e-05
7.92337e-05
3.67113e-05
-2.69162e-05
4.96675e-05
-1.15251e-07
5.1155e-05
4.20862e-05
-3.8308e-05
9.21622e-05
0.000106615
8.71844e-05
2.54086e-05
7.49617e-05
0.000101106
4.54679e-05
-4.47989e-06
-1.66914e-05
6.70487e-05
0.000119669
-2.34878e-05
9.00025e-05
-1.47952e-05
-3.90528e-05
-6.2146e-06
-8.99176e-05
5.22715e-05
0.000157961
2.40975e-05
9.16885e-05
-2.49444e-05
0.000157723
9.09189e-05
-3.16883e-06
9.47258e-05
3.90381e-05
0.00013097
-2.57744e-07
-6.85494e-05
2.66277e-06
7.39996e-05
0.00013342
5.79278e-05
2.02985e-05
3.31153e-05
8.04215e-05
4.36595e-05
1.22658e-05
7.49691e-05
5.09601e-05
4.32278e-05
-3.98809e-05
-3.45635e-05
4.04444e-05
2.44896e-05
0.00011572
6.60871e-05
1.82551e-05
8.13098e-05
1.99639e-05
-1.881e-05
0.000119796
9.26161e-05
-2.24425e-06
3.77492e-05
2.03247e-05
6.79702e-06
4.46092e-05
-3.19162e-05
4.68965e-05
-1.15024e-05
-4.98408e-05
2.32953e-05
2.09623e-05
0.000160761
9.88224e-05
2.06416e-06
0.000137836
1.15242e-05
-3.11238e-05
0.000132419
1.78267e-05
2.91317e-05
0.000108428
-8.34593e-06
3.45042e-05
4.323e-05
5.74673e-06
3.42709e-05
-5.27618e-06
1.7543e-05
7.67778e-05
2.50083e-05
0.000112709
-2.20693e-05
3.25855e-05
2.55231e-05
5.84619e-05
-6.12722e-05
0.000105448
0.000137295
2.50286e-05
4.32241e-05
7.45822e-05
0.000111579
-2.02678e-05
-8.13312e-06
8.72934e-05
-8.23226e-05
1.15578e-05
3.31813e-05
8.87695e-05
-7.06001e-05
-3.1811e-05
5.65359e-06
1.04988e-05
7.98533e-05
4.14201e-05
7.20923e-05
0.000102554
7.46856e-05
2.48845e-05
0.000198125
8.1612e-05
-6.56993e-05
6.242e-05
0.000201229
4.75224e-05
8.32756e-05
7.86679e-05
-1.63084e-05
5.95985e-05
0.000149169
4.39014e-05
3.83354e-05
-1.00757e-05
6.97707e-05
-5.98878e-05
5.34237e-05
6.86806e-05
8.57909e-05
6.81021e-05
0.000137439
0.000106096
-2.40521e-05
0.000111081
-0.000131281
0.000102691
9.90944e-05
-5.28728e-05
-3.79209e-05
8.69745e-05
0.000114877
0.000176992
3.40524e-05
7.95294e-05
5.6745e-05
-3.69136e-05
-1.514e-05
8.6903e-05
6.86066e-05
6.22892e-06
4.16544e-05
2.36375e-05
2.60696e-05
0.000121307
-3.55704e-05
-2.05769e-05
2.75008e-05
5.9451e-05
8.98005e-06
1.84993e-05
8.66944e-05
-5.82667e-05
-3.07104e-07
2.65897e-05
-1.44092e-05
-2.21961e-05
-3.95465e-05
0.000128655
-4.29642e-06
2.10486e-05
-3.85127e-05
0.000102294
2.14376e-05
2.40526e-05
4.18616e-05
-0.0001049
2.4705e-05
-6.30288e-05
-2.51194e-05
-2.38868e-05
5.1226e-05
-2.6045e-05
-7.57643e-05
4.98929e-05
-6.60464e-05
-4.29003e-05
2.33409e-05
-5.9908e-05
-8.02729e-05
3.00223e-06
-4.24262e-05
4.6622e-06
1.08912e-05
-2.15753e-05
-4.0608e-06
-5.82072e-05
-6.74935e-05
-0.000106138
-1.79202e-05
-2.00463e-05
-5.72718e-05
-2.52762e-05
7.72998e-06
-3.07409e-05
-8.53871e-05
-3.53889e-05
-8.36118e-06
2.74422e-05
-7.95685e-05
-6.67479e-05
2.31335e-05
-0.000103178
-3.37884e-05
1.98339e-05
-8.20332e-05
-5.15867e-05
-4.38415e-05
8.67341e-06
3.55999e-05
-2.47124e-05
4.87419e-06
-0.000112385
-3.15171e-05
3.88792e-05
-3.39416e-05
-6.5613e-05
-4.11929e-05
-3.1738e-05
2.98233e-05
-2.8532e-05
-3.5457e-05
-2.3487e-05
-0.00011611
1.48104e-05
-3.37936e-05
4.56308e-05
-5.12688e-05
-5.72853e-05
-3.73456e-05
-3.01469e-05
-6.05667e-05
-1.00289e-05
-7.96345e-05
-0.000109192
1.21041e-05
-4.39818e-05
9.01788e-06
-1.84356e-05
1.72418e-05
-5.13536e-05
-1.04338e-05
4.76094e-05
-2.54943e-05
5.74086e-05
2.16067e-07
-3.24126e-05
-5.04445e-05
-8.22562e-05
2.84826e-05
2.4466e-05
-6.16945e-05
-0.000158637
-4.16979e-05
-6.54254e-08
-1.69135e-05
8.77376e-06
5.33131e-05
3.1559e-06
-1.07943e-05
2.4714e-05
-5.96547e-06
3.43231e-05
-2.73114e-05
-6.84708e-06
-1.89524e-06
-4.36433e-05
-0.000106617
-3.96519e-05
-2.96774e-05
-3.556e-05
1.6422e-05
-5.91241e-05
-4.2719e-05
-1.06764e-06
-5.99993e-06
5.4352e-05
-3.54243e-05
-7.13798e-05
-7.13184e-05
4.01698e-05
1.15475e-05
-5.23512e-05
-1.11545e-05
9.64524e-06
3.18991e-05
-8.5775e-05
1.39615e-05
-6.13786e-05
-7.74185e-06
-3.48627e-05
-1.67097e-05
-4.55654e-05
-6.96031e-05
1.70248e-05
-4.88106e-05
-2.07967e-05
1.59811e-05
-1.0553e-05
-2.35453e-05
-1.24405e-05
-3.31043e-05
-4.6012e-05
-1.33578e-05
-4.22458e-05
-8.32276e-06
-5.94477e-05
-7.82583e-05
8.69716e-06
-2.01957e-06
-8.3825e-05
1.05489e-05
-3.22353e-05
-4.36765e-05
-0.000117681
-8.72556e-06
-3.99577e-05
-3.83073e-05
-7.16746e-05
9.3705e-06
3.00047e-05
-1.70408e-05
-2.39993e-05
-1.85613e-06
-5.11222e-05
-2.02564e-05
-8.13486e-05
-6.40951e-05
3.6243e-05
-8.02709e-05
-7.56339e-06
2.37459e-05
2.21167e-05
-5.27813e-05
-2.42516e-06
3.60704e-05
-9.46561e-05
1.02373e-05
-2.21475e-05
3.97032e-05
-4.13514e-05
-2.55479e-05
-5.70074e-06
3.04057e-05
-6.90703e-05
-4.77675e-05
3.67501e-05
-4.79713e-06
2.0595e-06
-4.86565e-05
-0.000107548
-6.60245e-05
-2.66013e-05
-2.24796e-05
-9.33034e-06
-1.88571e-05
-0.000101449
6.32321e-06
3.69588e-05
4.61075e-06
-1.08487e-05
-2.36547e-05
-8.5084e-05
-3.90909e-05
4.81098e-05
-6.97782e-06
-7.51887e-05
-6.46274e-05
-4.37899e-05
3.07563e-05
-5.53513e-05
1.83075e-06
-5.12168e-05
9.71677e-05
1.1798e-05
-4.14065e-05
-5.22407e-05
-4.83994e-05
-4.73997e-05
3.21253e-05
-3.50834e-05
-7.29871e-05
1.69803e-06
-2.53876e-05
-1.98886e-05
4.50574e-06
-1.73199e-05
7.05679e-05
5.7089e-05
-6.70664e-05
-3.48975e-05
-2.73383e-05
-7.02046e-05
-2.06061e-05
2.42677e-05
8.58861e-05
-8.70345e-05
6.93428e-06
-4.34531e-05
-3.62701e-05
6.90324e-05
3.75882e-05
-6.27583e-05
-4.99049e-06
2.55418e-05
-5.11215e-05
2.26244e-05
-1.34828e-05
-4.8021e-05
-1.98239e-05
3.05509e-06
3.73241e-05
3.4268e-05
-1.23484e-05
-2.31675e-05
-0.000132199
-1.66823e-07
-7.606e-06
5.1258e-05
-7.35279e-06
-7.36311e-05
5.01703e-06
-3.30425e-05
-1.9914e-06
5.00252e-05
-7.79761e-06
-2.33889e-05
-8.48039e-06
1.05437e-06
-1.92293e-05
7.13239e-05
-5.15233e-05
7.82264e-06
3.11632e-05
6.53438e-05
-4.67902e-05
-2.90641e-05
-1.14904e-05
-2.49564e-05
-9.34287e-05
-2.04818e-05
3.51585e-05
4.88632e-05
3.6408e-05
-1.64524e-05
3.77696e-05
6.14579e-05
-4.7524e-05
4.48452e-05
4.40087e-05
9.82254e-06
-5.10867e-05
1.23068e-05
2.34444e-05
7.04306e-05
4.96682e-05
-3.57145e-05
2.25287e-05
5.27373e-06
-2.51166e-05
4.80087e-05
3.40398e-05
2.11629e-05
-2.89199e-05
-7.34259e-05
2.1675e-05
3.48733e-05
1.4212e-06
-4.63356e-05
1.81689e-06
-1.65713e-05
5.22438e-05
1.9271e-05
-4.25105e-05
-9.05943e-05
6.88422e-06
2.94283e-05
9.4329e-06
3.90759e-05
-4.01763e-05
2.79772e-05
-3.30706e-05
9.02758e-05
1.87058e-05
2.19363e-05
-2.38949e-05
3.89219e-05
7.95067e-05
-1.42981e-06
-1.07869e-05
-4.3123e-05
-5.6342e-05
3.65551e-05
5.69131e-06
-2.97658e-05
3.18501e-05
-3.75106e-05
-1.97687e-05
6.36961e-05
5.06421e-05
-4.80587e-05
-4.18769e-05
-9.31206e-06
-2.63562e-05
-1.33654e-05
5.09444e-05
7.41067e-05
-1.38808e-05
-5.52125e-05
-6.0239e-05
2.25469e-05
4.01647e-05
-3.56472e-05
4.60856e-05
6.04029e-05
1.00422e-05
-2.72853e-05
-6.8402e-05
1.03849e-05
-3.90661e-05
-6.67312e-05
1.89327e-05
-3.86649e-05
-7.26085e-05
1.55339e-05
3.44662e-05
-9.18156e-06
-2.52384e-05
3.49991e-05
6.71941e-05
-7.81461e-06
-2.34847e-05
1.90873e-05
-3.4557e-05
-3.24706e-06
3.17619e-05
-4.33619e-05
-4.44567e-05
-1.29159e-05
6.19071e-05
-1.54715e-05
-1.92423e-05
-9.33767e-07
1.07802e-05
-2.67865e-05
6.43288e-05
6.29341e-07
3.16112e-05
-3.45435e-05
-2.02107e-05
3.2981e-05
-8.92999e-06
-5.33775e-05
-6.58387e-05
-1.97741e-05
2.38302e-06
3.65472e-05
8.36805e-06
-1.87778e-06
1.48291e-05
-2.75737e-05
4.24775e-05
2.79524e-05
9.69101e-05
6.65833e-05
1.94266e-05
1.45669e-05
-1.36639e-05
5.90174e-05
5.7769e-05
-3.53303e-05
8.65562e-05
-1.88479e-05
-2.10222e-05
-5.39366e-05
1.12335e-05
-1.22983e-05
7.03165e-05
-1.07866e-05
6.14952e-06
5.77936e-05
3.4752e-05
-3.56394e-05
-5.85639e-06
4.38268e-05
2.99952e-05
1.48884e-05
3.09397e-06
-6.2997e-05
1.44142e-05
-9.34465e-05
4.10876e-05
-3.34157e-05
-7.29722e-05
6.78643e-06
-4.31375e-05
3.26063e-05
-5.40693e-05
-3.51892e-05
-7.38038e-06
-3.46783e-05
7.78132e-06
5.28588e-05
1.66991e-05
-1.61561e-06
7.61892e-05
-2.89595e-06
5.27892e-05
3.30994e-05
2.69053e-05
3.20113e-05
-4.14012e-05
-7.91212e-05
6.70378e-06
-3.7106e-05
3.39001e-07
3.12878e-05
2.55891e-05
4.6243e-05
-7.34453e-06
3.85577e-05
-1.82486e-05
8.60399e-05
-3.51757e-05
-2.42111e-05
-2.44784e-05
3.96881e-05
3.96362e-05
-5.59585e-06
-1.59822e-05
5.26491e-05
-3.12828e-05
-9.51276e-06
1.32088e-05
3.03086e-05
4.01442e-05
-6.21307e-05
6.55791e-06
-4.02802e-05
7.68162e-05
-2.3057e-05
2.42738e-06
-2.36243e-05
-7.65687e-06
1.05589e-06
-7.58455e-05
1.89051e-05
4.24923e-05
2.7332e-06
-4.68811e-05
-0.000111356
2.32972e-05
1.92821e-05
1.66986e-06
4.11416e-05
-1.26259e-05
3.11469e-06
-2.15399e-05
-7.41896e-05
3.57792e-05
1.81668e-05
-4.43209e-05
1.38057e-05
2.49419e-05
-1.40066e-05
-5.45265e-05
-1.59673e-05
4.84829e-05
-4.49945e-06
-0.000139603
5.79739e-05
3.08063e-05
0.000100899
-3.72753e-05
3.82722e-05
1.9673e-05
-2.19457e-05
-3.16994e-05
-3.15025e-05
5.79791e-05
8.84749e-05
-9.06747e-06
-5.99889e-05
9.21835e-06
8.46433e-06
-1.82772e-08
-2.07853e-05
-3.90374e-05
0.000130274
-3.43214e-05
-4.70516e-05
5.37117e-05
-2.79699e-06
2.82284e-06
-3.79189e-05
-6.05412e-05
4.75422e-05
4.84361e-05
-1.75375e-05
3.74631e-05
-5.19102e-05
4.18175e-05
3.39495e-05
-6.99728e-05
2.73662e-05
3.88059e-05
1.6781e-05
-5.26782e-05
6.28693e-05
-2.1962e-05
-4.31011e-05
-7.40355e-06
-2.66791e-05
4.25467e-05
3.64985e-06
2.75732e-05
-4.73878e-05
-6.43695e-06
3.03094e-05
-2.263e-05
-8.19342e-05
-4.9582e-05
1.36233e-05
3.36373e-05
4.53525e-05
-3.78165e-05
6.72047e-05
-2.02062e-05
-6.23039e-05
4.74693e-05
4.62763e-05
1.24057e-05
3.82881e-05
2.15031e-05
5.87141e-05
-6.49999e-05
-4.25666e-05
-1.34122e-05
4.39059e-05
4.78704e-05
-2.23203e-05
-6.05176e-05
1.98302e-06
-2.43727e-06
-3.00119e-05
1.48923e-05
2.92043e-05
7.28872e-05
7.06636e-05
-3.5825e-05
-0.000140628
2.58457e-05
1.20339e-06
-2.88252e-05
-4.697e-05
5.72422e-05
3.12586e-05
1.75566e-05
-0.000107817
-1.58474e-05
1.13321e-05
3.99525e-05
3.28139e-05
-4.30105e-05
3.20364e-05
3.74883e-05
-3.91932e-05
2.83308e-05
3.71945e-05
-1.37142e-05
3.56362e-05
-5.44158e-05
8.30449e-05
3.03239e-05
-1.94274e-05
-2.67293e-05
6.84278e-05
4.1218e-05
-2.91599e-05
3.35351e-05
3.9214e-05
3.68375e-05
-3.48375e-05
-2.81518e-05
1.41666e-05
3.52949e-05
-7.15662e-05
-2.16161e-05
4.60055e-05
3.64995e-05
2.3186e-05
-3.12363e-05
-7.13485e-05
2.2548e-05
-3.52727e-05
7.69857e-05
-4.16434e-05
-1.3786e-05
7.45145e-05
-5.40672e-05
4.00457e-06
-1.77844e-05
-5.58046e-05
2.01227e-05
5.96023e-06
5.05822e-05
6.31164e-05
-6.58253e-05
8.14184e-05
-4.32242e-05
-2.44336e-05
2.67205e-05
4.39456e-06
9.56794e-06
7.65547e-06
4.39049e-06
-4.22157e-05
2.17026e-05
1.01276e-05
-1.56354e-05
-7.88149e-05
-2.79713e-05
-7.33102e-06
2.62833e-05
6.22869e-06
2.38398e-05
-8.04104e-06
5.2616e-05
3.00962e-05
-3.07957e-05
-8.68592e-05
1.14751e-05
3.87331e-05
1.11602e-05
-2.8562e-05
-9.12533e-06
-2.48151e-06
2.21181e-05
-3.22959e-06
2.53443e-05
2.25469e-05
3.20965e-05
-2.08738e-05
-3.06312e-06
6.05558e-06
-3.41423e-06
3.49666e-05
-2.44873e-05
5.34741e-05
1.9663e-05
1.27887e-05
-1.15685e-05
2.92524e-05
2.87092e-06
3.39588e-05
-1.87168e-05
-2.88629e-06
-6.90415e-05
2.46683e-05
-5.03892e-06
-1.26837e-05
2.05979e-05
-2.63395e-05
-2.66172e-06
-3.02469e-05
-7.38935e-05
-1.16548e-05
0.000124287
-9.67178e-05
2.30564e-05
4.08882e-05
1.12082e-05
1.89699e-05
2.29746e-05
-6.50401e-05
-1.85566e-05
-3.5894e-05
9.88785e-06
-2.25084e-05
-0.00011462
5.0644e-05
-0.000120174
-5.21548e-05
0.000129995
-2.85541e-05
-3.29316e-05
1.39812e-05
-3.08803e-06
-4.5842e-06
-6.87176e-05
5.01168e-07
2.5406e-05
-3.06803e-05
-4.83694e-05
-2.09835e-05
3.7746e-05
3.99076e-05
1.09905e-05
-3.37756e-05
2.43068e-05
4.91922e-05
4.58604e-05
-7.13922e-05
-6.57423e-05
-4.48682e-05
5.1466e-05
2.45089e-06
-1.54669e-06
-6.96713e-05
3.42494e-07
-1.04236e-05
6.89423e-06
-2.29039e-05
-2.35497e-06
-3.06221e-05
3.27416e-05
-3.22657e-06
-1.03371e-05
-2.52564e-05
2.84623e-05
9.52234e-05
-3.02624e-05
3.21713e-05
4.4381e-05
-4.54087e-05
-0.000101101
-3.30771e-05
0.00011101
6.25444e-05
-5.28278e-05
-0.000107186
-1.18129e-05
6.85671e-05
3.46118e-05
-5.40467e-05
-5.2138e-05
4.75172e-05
-4.06369e-05
-0.000119436
6.12034e-05
-1.81564e-05
-3.11728e-05
0.000105493
-4.54729e-05
-9.29439e-05
-5.38453e-05
9.50531e-06
-5.54993e-05
1.67231e-05
4.28199e-06
-7.23696e-05
6.52391e-06
4.59249e-05
6.77758e-06
-2.06684e-06
5.32221e-05
2.83382e-05
-3.75981e-05
-4.85517e-05
0.000104193
-1.62807e-05
-5.72763e-06
-2.97003e-05
-2.6722e-06
-4.58121e-05
8.22789e-06
-1.31109e-05
-4.38883e-05
-3.3671e-05
-5.49546e-05
4.80607e-05
-3.43903e-05
5.50938e-05
-3.26774e-05
-2.49941e-05
-9.6095e-06
3.26962e-05
-4.34382e-05
8.21741e-05
3.99048e-06
1.01076e-05
-2.64167e-05
-1.68639e-06
5.18316e-05
-5.05233e-05
7.65341e-05
-2.69972e-05
-2.84484e-05
5.25324e-06
1.91286e-05
5.7527e-05
-1.55075e-05
1.41482e-05
1.54793e-05
9.67543e-05
-2.60593e-05
2.79746e-06
-6.86491e-05
-4.36464e-06
5.35534e-06
-6.23404e-07
-1.12271e-05
2.76114e-05
-7.06455e-05
2.38861e-05
3.64638e-05
-5.86093e-06
-1.47319e-05
5.85358e-05
-1.46381e-06
5.05941e-07
-8.36363e-06
-6.6882e-05
-7.45826e-06
-5.66775e-05
5.49144e-05
-1.55682e-05
-6.51163e-05
1.93968e-05
-2.50088e-05
1.49552e-05
4.44492e-05
-8.87865e-06
-5.64918e-05
-7.07047e-05
-8.34139e-06
-2.96305e-05
-2.15252e-06
-1.83217e-05
-1.89315e-06
-0.000102778
8.74826e-06
3.24824e-05
3.07962e-05
-0.000103662
-3.61558e-05
2.02421e-05
8.39116e-05
4.75289e-06
-1.31456e-05
3.19695e-05
7.14906e-07
-3.71364e-05
-7.51377e-05
-6.92116e-05
-2.21259e-06
-7.09705e-05
1.36672e-06
-4.37521e-05
5.21007e-05
-3.2033e-05
-2.11229e-05
9.38156e-06
-1.06089e-06
4.85103e-06
-2.59297e-05
5.72978e-05
-2.03846e-05
4.02203e-05
1.71228e-05
-4.36113e-05
4.79119e-06
-4.09903e-05
-3.49013e-07
2.30944e-05
-3.31625e-05
1.34481e-05
1.23589e-05
-2.6104e-05
-4.63814e-05
1.17682e-05
-4.40205e-05
0.000100773
4.16168e-05
5.95757e-05
5.72752e-06
3.63542e-06
3.72175e-05
-2.83869e-05
-2.65329e-05
-3.87033e-05
-3.32437e-05
-2.94507e-06
-4.83403e-06
-7.42385e-05
-9.2118e-05
-4.12923e-05
9.3604e-05
1.79686e-05
2.46145e-05
5.07897e-05
-3.90916e-05
-4.86935e-05
-6.07769e-05
2.91872e-05
-7.01521e-05
2.39775e-05
5.71003e-05
1.43811e-05
-8.54451e-05
6.48925e-05
5.6409e-06
1.15011e-05
-0.000120717
5.3374e-05
7.36075e-05
5.39119e-06
1.38739e-05
1.18412e-05
-9.65106e-06
3.66955e-05
-3.03434e-05
4.71818e-05
6.17243e-05
-4.68059e-06
-4.04327e-05
-2.98404e-05
4.83415e-06
-1.19233e-06
4.36946e-05
-1.85019e-06
-1.13769e-05
-1.70612e-05
7.82474e-05
-4.58385e-06
1.79138e-05
-3.6286e-05
-7.78632e-05
7.38343e-05
-9.19305e-05
-5.20772e-06
2.09283e-05
2.30619e-06
7.05887e-05
3.83818e-05
7.42089e-06
5.5014e-05
-1.01445e-05
4.60942e-05
-1.68376e-05
-5.88745e-05
-4.91895e-05
5.14216e-05
5.45882e-05
-1.98535e-05
5.81006e-05
3.02005e-05
1.38808e-05
2.24963e-05
6.25567e-05
6.90168e-06
-8.80085e-05
-1.34254e-05
-5.00749e-06
4.87005e-05
5.9925e-05
6.3092e-05
1.42632e-06
2.14425e-05
-2.66383e-05
-9.90403e-06
-6.22045e-05
-1.60282e-05
3.25942e-05
-3.85359e-05
-1.90415e-05
5.31537e-05
-2.28165e-05
1.54099e-05
-4.23559e-05
-5.64614e-07
-5.11482e-05
-1.07912e-05
-0.000114606
2.06346e-05
1.91702e-05
7.28538e-05
2.73276e-05
-4.94907e-05
5.0578e-05
5.27869e-05
6.41994e-05
-7.99028e-06
4.4397e-05
-4.86512e-05
-2.58866e-05
-3.12887e-05
9.76644e-05
-4.46032e-05
-4.87101e-05
2.70449e-05
-5.04584e-05
1.36553e-05
-9.01836e-05
-0.000131355
6.04794e-05
5.67492e-05
-1.70096e-05
2.47732e-05
-9.10845e-06
5.167e-05
-8.06587e-05
3.82906e-05
3.78337e-05
1.59069e-05
-7.97585e-06
-6.655e-06
3.57417e-05
3.13775e-05
-9.32616e-05
-4.72957e-05
-9.38084e-05
-4.97691e-05
6.84743e-05
-3.54389e-05
9.14535e-06
-3.66231e-05
3.87214e-05
1.69342e-05
4.47615e-05
-5.40494e-05
2.94939e-05
6.61317e-05
1.2241e-05
-6.64289e-05
1.13307e-06
1.48165e-05
-1.36928e-05
6.0895e-05
-9.09204e-07
7.8931e-05
9.09739e-06
5.26162e-05
-9.66366e-05
3.41135e-05
6.60564e-06
-1.27826e-05
-4.43456e-05
-2.06705e-05
3.15043e-06
-9.30857e-07
-6.30611e-05
-0.000100798
-4.1587e-05
-9.15085e-05
-4.8186e-05
5.62919e-05
-1.52455e-05
-5.22906e-05
-2.412e-05
-1.08293e-05
-4.57694e-05
-4.23092e-05
1.19053e-05
2.83609e-05
-1.41362e-05
-5.28243e-05
-6.13478e-05
1.77327e-05
1.07333e-05
-2.08274e-05
5.96307e-05
1.7907e-06
2.51197e-05
-2.36357e-05
5.88673e-05
3.18952e-05
4.76103e-05
-7.31894e-05
7.22462e-05
-0.000100922
-6.24137e-06
6.4931e-05
8.48901e-06
3.23066e-05
-3.30666e-06
-4.32206e-05
2.37848e-06
1.9997e-05
-1.27294e-05
9.5939e-06
3.61402e-05
2.75432e-05
6.92145e-05
-2.72342e-06
-6.32235e-05
-6.14591e-06
-7.61054e-06
-1.02116e-05
4.45035e-05
5.2012e-06
2.67312e-05
-6.62985e-06
-4.79841e-06
-2.94803e-05
1.43545e-05
5.68992e-06
6.79197e-05
9.01218e-06
3.43916e-05
1.84246e-05
1.29038e-05
-4.46521e-05
3.45935e-05
3.36546e-05
1.93878e-06
-1.88093e-05
4.46874e-05
-5.23893e-05
6.75367e-05
7.74651e-05
6.37141e-06
8.13843e-05
-3.18105e-05
2.20666e-05
-1.73561e-05
-2.87807e-05
-6.8658e-05
1.19234e-05
2.47916e-05
1.23699e-05
-3.48676e-05
2.16779e-05
-2.20749e-05
-3.52541e-06
1.23349e-05
1.70921e-06
2.97126e-05
-6.88562e-05
-1.33736e-05
9.18964e-05
-3.43514e-05
1.47279e-05
-1.23631e-05
4.94568e-05
2.42065e-05
-4.44684e-05
5.05934e-05
0.000106778
9.66933e-05
6.52502e-05
8.89646e-07
-7.20704e-06
-1.14562e-05
6.66905e-05
-5.44789e-06
4.01792e-05
-2.33977e-05
4.1756e-05
-3.41272e-05
-2.13982e-05
6.28037e-06
-2.62645e-05
3.58213e-05
-8.93143e-05
4.69463e-05
-3.57556e-05
3.30249e-05
2.34641e-05
-9.97119e-05
2.21338e-05
3.57017e-05
-1.87461e-05
2.13262e-05
-6.78233e-05
2.71614e-05
-5.16979e-05
5.68144e-05
4.88434e-05
-1.74806e-05
3.80412e-05
4.54168e-05
1.17876e-05
-8.37946e-06
2.07493e-05
-2.05645e-05
5.28255e-05
-7.57057e-05
-4.26268e-05
-7.67293e-06
2.04984e-05
-1.54354e-05
-3.12328e-05
1.174e-05
6.21653e-05
4.88085e-05
4.33589e-06
-0.000127571
-5.02239e-05
-6.86678e-05
-6.60997e-05
3.09136e-05
7.61508e-05
-7.01351e-05
-7.02974e-06
9.28517e-06
4.82405e-05
3.84019e-06
8.47294e-06
-6.7576e-05
-1.85829e-05
1.21738e-05
-8.66759e-06
-3.19519e-05
-1.42832e-05
3.18384e-06
7.33032e-06
1.82409e-05
2.56519e-05
-6.78842e-05
-4.71401e-06
3.49288e-05
-5.05331e-05
1.07939e-05
-1.50145e-05
-1.6305e-05
-2.95391e-05
9.53889e-05
2.63908e-05
-1.76689e-05
-2.15017e-05
-1.27993e-05
8.03277e-06
-1.35809e-05
2.63907e-05
-7.18539e-06
-1.90847e-05
2.17275e-05
5.39322e-05
-9.03433e-05
5.79042e-05
-1.44779e-05
-1.46057e-05
-3.8323e-05
-4.54388e-05
2.61618e-05
5.74824e-05
2.07162e-05
1.80587e-05
2.61939e-05
-7.22206e-06
-2.65966e-05
2.38708e-05
-3.81795e-05
-3.2999e-05
2.86615e-05
4.19561e-06
5.3414e-05
-1.2902e-05
-4.54625e-06
9.10498e-05
1.63318e-05
1.69144e-05
-4.63272e-05
3.5574e-05
-3.91712e-05
2.2946e-05
1.72227e-05
3.08594e-06
6.80585e-05
6.72806e-05
-1.70234e-05
-7.54627e-06
4.55863e-05
-1.23875e-05
-6.61274e-06
0.000122597
3.26276e-05
1.82124e-05
2.49494e-05
-5.22537e-05
-2.22387e-05
-5.70162e-05
1.30502e-06
7.68993e-06
2.41784e-05
1.07714e-05
-5.20688e-05
1.76704e-05
6.44937e-05
-6.11891e-05
5.44072e-05
-4.49317e-05
-7.05202e-05
6.23113e-06
3.27927e-05
4.70877e-05
1.32702e-06
1.32956e-05
-7.786e-05
-2.81828e-05
-6.8926e-06
0.000112601
3.68475e-05
-3.34252e-05
4.85629e-05
3.18349e-05
1.14891e-05
6.94898e-05
0.000133271
-7.38587e-05
-4.20363e-05
-1.68969e-05
2.0411e-05
8.13324e-06
-1.95547e-05
3.4755e-05
5.05912e-05
-6.30396e-05
-4.22692e-05
1.79627e-05
5.70345e-05
-6.67176e-07
2.83984e-05
-3.47798e-05
-8.23165e-05
-3.16934e-05
-5.51026e-05
-1.69483e-05
6.43996e-05
-5.57771e-05
5.25212e-05
-0.000112341
-7.10645e-05
-1.52239e-05
-1.60271e-05
-3.59298e-05
5.28325e-05
4.40275e-05
-4.75498e-06
-6.05781e-05
-2.03251e-05
1.72122e-05
2.40912e-05
-2.15003e-05
-3.80278e-05
1.84206e-05
-5.22973e-05
-1.48041e-05
-9.04265e-05
-1.86135e-05
-1.40977e-05
0.000121307
-2.54698e-05
5.25204e-05
3.79469e-05
3.1194e-05
-3.85309e-05
-5.1026e-06
-4.49655e-05
2.62945e-05
1.12427e-05
-1.86058e-05
1.74432e-05
-3.76216e-05
8.71113e-06
-3.17956e-05
7.14654e-05
-7.47015e-05
0.000101809
5.19645e-05
3.18061e-05
1.9415e-05
4.63657e-05
-3.00468e-06
1.62399e-05
7.9999e-05
3.67558e-06
-1.37992e-05
-5.21082e-05
-5.62186e-05
2.68223e-05
-3.78018e-05
-4.78236e-05
2.88634e-05
-2.68989e-05
-1.16546e-05
-5.02804e-05
3.10758e-05
-2.00598e-05
3.8109e-05
-8.71741e-05
-4.69045e-05
1.67185e-05
4.92434e-05
9.12766e-06
1.42609e-06
-6.69417e-05
-7.27302e-05
-1.43617e-05
-9.74489e-06
-1.56978e-05
2.67373e-05
-9.21225e-05
-5.88646e-05
-1.25882e-05
5.10603e-05
-8.97492e-05
7.86016e-05
1.30896e-05
1.51681e-05
-0.000114672
-4.19717e-05
1.06478e-05
8.84158e-05
-6.75314e-06
-6.93079e-06
1.08082e-05
-9.15198e-05
-1.49582e-05
1.07787e-05
5.18087e-05
-3.28285e-05
4.25938e-05
9.43104e-06
7.85571e-07
4.03605e-05
-3.83472e-06
2.66726e-05
-2.21871e-05
6.10831e-07
2.16463e-06
1.83089e-05
-2.01635e-05
-7.52348e-05
-8.20156e-05
-4.08832e-05
3.06889e-05
3.11454e-05
-1.76034e-05
-1.14891e-05
3.875e-05
9.27423e-06
1.17531e-05
-4.44871e-05
-5.27484e-05
-4.26522e-05
9.60721e-05
-3.91068e-05
-6.17566e-05
-4.51251e-05
4.72006e-06
-4.15777e-05
-1.74821e-06
2.57661e-05
4.8114e-05
-3.50762e-05
2.89144e-05
3.42632e-05
2.19488e-05
-2.03149e-05
-2.84293e-05
2.95837e-05
6.23257e-05
1.81493e-05
-1.77091e-05
-4.229e-05
-3.51784e-06
6.32226e-05
3.54683e-06
7.63219e-06
-5.29445e-06
1.01698e-05
2.74987e-05
2.91367e-05
-2.60754e-05
-5.97399e-05
8.67886e-05
3.29312e-05
-1.45723e-05
-1.42369e-05
5.72904e-05
3.84287e-06
9.81886e-05
0.000121367
-2.85935e-05
2.49981e-05
7.87142e-06
-1.86716e-05
-1.70157e-05
-7.32371e-05
0.000112081
-1.25973e-05
-6.01783e-05
7.86246e-06
3.08843e-05
9.78308e-06
7.84057e-06
1.7136e-05
4.91273e-08
-2.67224e-05
-2.5681e-05
-4.13365e-05
-4.55834e-05
-1.76239e-05
-7.76583e-06
-4.82693e-05
7.13977e-05
1.64245e-05
3.01737e-05
-3.19597e-05
1.39842e-05
-1.39403e-05
-1.55892e-05
4.47629e-06
-1.65857e-05
8.27658e-05
5.56019e-05
5.67199e-06
3.54117e-05
2.8623e-06
-1.63058e-05
2.07496e-05
9.63174e-06
-1.45013e-05
-4.8888e-05
-4.07486e-05
-9.69204e-06
4.12581e-05
-2.158e-05
-3.41523e-05
5.64964e-05
-1.37312e-05
-5.04192e-05
3.84743e-05
-2.33625e-05
-1.19628e-06
-5.94468e-05
5.95266e-06
6.40079e-05
-7.3972e-05
-2.23713e-05
-4.28874e-06
-7.43158e-05
-1.58092e-05
5.60064e-05
-2.41022e-05
5.20148e-05
4.58725e-05
-3.1643e-05
0.000122277
2.89965e-05
1.20704e-05
-2.74088e-05
-3.44678e-05
-3.20203e-05
5.98462e-05
4.27905e-05
-2.54269e-05
-1.62858e-05
4.25266e-05
4.55978e-05
-7.08052e-05
-4.5384e-05
-1.75919e-05
6.00135e-05
3.70808e-05
4.36973e-05
-7.64534e-06
2.1755e-05
1.48435e-05
1.47807e-05
3.49518e-05
1.44988e-05
-7.17351e-05
5.90797e-05
3.93527e-05
-1.62127e-05
4.74523e-05
-1.84563e-05
-3.84232e-05
8.46095e-05
5.78981e-05
5.29927e-05
-2.82949e-05
-1.40262e-05
-3.38163e-06
6.56865e-05
1.70167e-05
1.81667e-05
-1.45185e-05
-3.22154e-05
8.30146e-06
5.70646e-05
3.72088e-05
6.89618e-05
3.92864e-05
3.07857e-05
-1.59345e-05
4.17501e-05
8.47306e-06
-3.21824e-05
-1.07551e-05
-1.45928e-05
5.39317e-05
1.21886e-05
2.11238e-05
-2.64747e-05
1.12985e-05
-2.39081e-05
-1.44508e-05
1.09983e-05
-7.73487e-06
4.69014e-06
1.68592e-05
6.67054e-05
1.57987e-05
-0.00010758
-8.24989e-05
6.52368e-06
-5.85078e-05
5.17324e-05
1.84863e-05
1.66779e-05
-7.07682e-05
5.68538e-06
-1.86228e-05
-4.33436e-05
5.83278e-05
-4.15362e-05
-7.76736e-05
-1.33216e-05
-3.74753e-05
-1.09943e-06
5.06304e-05
3.4345e-05
5.21397e-05
2.95315e-05
4.7144e-05
-2.02374e-05
0.000134813
5.51657e-05
-3.82708e-05
-1.12219e-05
0.000111733
1.12865e-06
-1.38336e-05
-2.07328e-05
-1.05338e-05
5.75138e-06
2.5108e-05
-6.47178e-05
1.22248e-06
0.00011825
2.02316e-05
-6.96788e-05
-8.34581e-05
9.0689e-05
4.29548e-05
-6.09935e-05
-2.33611e-06
4.52413e-06
-2.48619e-05
-7.4984e-05
-6.30098e-06
3.39791e-05
6.28859e-05
-2.65904e-06
-2.97548e-05
-6.6773e-05
-1.08314e-05
7.42299e-06
3.03177e-05
-1.26915e-05
1.26475e-05
-3.24743e-05
-1.54036e-05
4.6596e-05
-6.06524e-07
-7.33231e-05
-3.61172e-05
3.19347e-05
5.07116e-05
5.52048e-05
-3.86611e-05
-2.71017e-05
-1.73168e-06
4.00433e-05
-1.28828e-05
1.15238e-05
2.75387e-05
1.51002e-05
2.02362e-05
3.27821e-05
-0.000103584
-2.37204e-05
5.62991e-05
-3.56049e-05
-8.56416e-05
0.000101617
-2.907e-05
2.15787e-05
-5.19503e-05
6.29365e-06
-5.95589e-05
3.80189e-06
-4.01159e-05
2.2179e-05
-9.73779e-06
6.35827e-05
-2.76122e-05
-2.54394e-05
9.06726e-05
-5.55888e-05
-3.51439e-05
1.47808e-05
-2.30941e-05
3.46848e-05
-4.10142e-05
-1.09315e-05
2.98407e-05
3.45645e-05
-4.78461e-05
-5.78745e-05
-3.72987e-05
3.5862e-05
-1.02366e-05
-1.76756e-05
3.83474e-05
4.55091e-06
-3.07258e-05
-6.31745e-05
6.1912e-06
-5.68883e-05
0.000120349
-0.000117729
-6.80871e-05
1.01874e-05
-1.02163e-05
2.82166e-05
-1.96015e-05
-6.25593e-06
3.50751e-05
9.93162e-06
-5.96481e-05
5.40576e-05
-2.97579e-05
-7.26082e-07
-9.39099e-06
-2.64803e-05
5.89007e-05
9.35844e-05
7.95008e-05
-1.6892e-05
-6.82932e-05
-7.77042e-05
4.75621e-05
-1.31782e-06
1.17451e-05
5.16311e-05
-6.31503e-05
2.2143e-05
3.45728e-05
-3.89619e-05
4.92728e-05
9.85328e-06
-2.73689e-05
-7.18008e-05
-2.20723e-06
9.41264e-06
5.68593e-05
-2.01396e-05
-8.62242e-06
7.09028e-06
9.57632e-07
-2.91981e-05
-3.67722e-05
9.86853e-07
-7.08329e-06
-7.77079e-05
4.0713e-05
2.28039e-05
-2.33531e-05
-2.82731e-05
6.35581e-06
-3.10612e-05
-2.37784e-05
5.87655e-05
3.77757e-05
-8.88546e-05
1.8874e-05
2.82151e-05
2.42069e-05
-1.97262e-05
3.13714e-05
2.6772e-05
-2.78914e-05
-1.14406e-05
4.39791e-05
-1.84723e-05
6.28922e-06
-9.41614e-06
3.67076e-05
-1.65389e-05
-2.21911e-05
-3.26344e-05
2.11539e-05
-9.05285e-05
-2.25269e-05
7.1777e-06
-1.67805e-05
-5.12954e-05
-4.15262e-05
3.02582e-05
1.87581e-05
1.34514e-05
6.79971e-05
0.000103677
-2.68694e-05
-5.62214e-05
-7.36886e-06
-8.72975e-06
-8.22137e-06
-0.000119192
3.0766e-05
9.97082e-05
7.93549e-05
2.35237e-05
2.89548e-06
3.23567e-05
6.61926e-06
-1.27408e-05
-1.12373e-05
3.50154e-06
6.08952e-05
-6.73498e-06
5.99329e-05
-9.10857e-06
-4.93436e-05
-1.25004e-05
-1.7921e-05
3.41779e-05
-3.37977e-05
7.3954e-06
5.94531e-05
0.000102923
1.5897e-05
2.07417e-06
6.6084e-05
-5.49528e-05
-6.42202e-05
4.83613e-06
5.86056e-05
-3.53623e-05
-0.000113618
-3.21864e-05
8.25233e-06
3.0373e-05
4.09526e-06
1.2588e-05
-2.57902e-05
4.0303e-06
-1.99424e-05
-0.000115459
-8.30321e-06
2.34315e-05
1.67682e-05
-9.89973e-06
-1.77941e-05
3.41064e-05
5.38379e-05
-8.89762e-07
-3.26858e-05
-1.44821e-05
1.08392e-05
2.86297e-05
1.41953e-05
-1.13214e-05
4.36334e-05
-9.70031e-06
4.36599e-05
-6.25988e-06
-6.496e-05
8.33396e-05
7.37375e-06
-2.33591e-05
-5.29964e-05
8.21939e-06
-7.67077e-05
-5.47337e-05
1.69983e-05
-2.35288e-05
6.9304e-05
-5.89245e-05
-1.58963e-05
-3.79677e-06
-4.3655e-05
1.74984e-06
6.90902e-06
-1.56336e-05
-1.2681e-05
-6.31274e-06
-2.87474e-05
6.3584e-05
-1.27368e-05
2.98874e-05
-1.94585e-05
0.000106661
-6.87314e-05
2.64263e-06
7.97829e-05
-7.28981e-05
-2.11626e-05
-1.82865e-06
-5.65453e-06
-3.0719e-05
-1.66008e-07
6.13108e-05
-4.53608e-05
-3.93717e-06
2.74236e-05
5.10009e-05
6.30203e-06
2.15229e-05
-5.93152e-05
-4.52381e-05
-4.56913e-05
-4.3974e-05
-2.38915e-05
-5.03431e-05
-2.24274e-05
-6.2891e-05
1.11944e-05
0.000117078
1.08844e-05
1.6035e-06
7.11577e-06
-1.24837e-05
-9.79607e-05
1.17277e-05
-2.43352e-05
-6.5287e-05
-4.57339e-05
9.77493e-05
-2.84507e-05
2.46853e-05
2.89711e-05
-3.39509e-05
9.1926e-05
-5.06381e-05
-3.13993e-05
4.18164e-07
2.26257e-05
5.23936e-05
-4.6351e-05
3.01993e-06
-7.25882e-05
3.62428e-05
4.53796e-05
5.10277e-05
4.9612e-05
1.14621e-05
6.31507e-06
1.38573e-05
1.41468e-06
1.35625e-05
-5.94299e-05
-5.26095e-05
-3.14447e-05
3.68988e-05
-1.13086e-06
4.39351e-06
1.65972e-05
1.01103e-05
-4.56732e-05
-5.67073e-05
-2.16056e-05
3.75346e-06
3.02104e-05
2.47177e-05
-3.70553e-05
-4.6816e-05
-8.03266e-05
-3.89209e-05
8.46446e-05
4.35205e-05
1.9897e-05
-8.17562e-06
-6.95721e-06
-5.38768e-05
3.58438e-05
-6.18505e-05
7.90427e-05
-1.59474e-05
-3.99172e-05
-6.26177e-05
3.5122e-05
5.15337e-05
1.97033e-06
-3.47057e-06
-9.94932e-06
5.45722e-05
-4.35937e-05
-3.20036e-05
3.58502e-05
-2.33703e-05
-7.19354e-06
3.16272e-05
-2.36789e-05
4.79091e-05
6.11595e-05
-1.50185e-05
5.83363e-05
-1.60111e-05
-5.55504e-05
-4.11185e-05
3.92946e-05
8.73663e-05
-9.01869e-06
2.39066e-05
5.31233e-05
-2.11725e-06
3.75919e-05
-6.11142e-05
-5.37825e-05
4.75651e-05
-2.97428e-05
-7.41598e-05
-1.3014e-05
3.82948e-06
-4.95901e-05
-1.00632e-05
1.48064e-05
3.36801e-06
-4.77557e-05
-3.26619e-05
4.7799e-06
4.40958e-05
4.04307e-05
-4.65779e-05
-4.65796e-05
9.95444e-06
6.58093e-05
1.77755e-05
-1.76015e-05
-0.000102062
4.74709e-05
-2.01669e-05
-7.77538e-06
-8.79867e-06
4.50331e-05
-5.59166e-06
-5.70056e-05
-1.93103e-05
-3.39668e-05
4.75907e-05
2.16516e-05
-2.22094e-05
-2.47788e-05
-2.54152e-05
-5.89038e-06
-1.15663e-05
-4.13179e-05
-4.02364e-05
1.20548e-06
-4.48262e-05
2.04251e-05
3.3807e-06
-2.82914e-05
3.0164e-05
9.34873e-06
-6.71297e-05
-4.05739e-05
7.09337e-05
-3.39553e-05
-2.67519e-05
2.17736e-05
1.56357e-05
1.4439e-05
-8.90181e-06
-1.19935e-05
1.44319e-05
8.7028e-05
-9.69972e-07
1.24227e-05
-5.59282e-05
-1.92774e-05
3.90811e-05
3.07022e-06
-4.05496e-05
7.56618e-06
6.7285e-05
3.94994e-05
-7.47545e-05
-3.48644e-05
2.46887e-05
-5.16153e-05
3.76708e-06
-4.0855e-05
-1.83196e-05
8.32829e-05
-3.53502e-05
-3.56364e-05
-9.10158e-06
-2.37036e-05
-7.61584e-05
-4.3174e-05
-3.44523e-05
3.03324e-05
-5.93202e-05
-4.43419e-05
-1.38483e-05
2.80142e-05
4.43456e-05
7.11204e-06
-4.18862e-07
-3.37957e-05
5.63177e-05
4.62115e-05
-7.51619e-05
0.000106831
-4.85465e-05
-1.38163e-05
-8.4145e-07