# vtk DataFile Version 1.0
Net Charge Density
ASCII
DATASET STRUCTURED_POINTS
DIMENSIONS 256 128 1
ORIGIN 0 0 0
SPACING 0.15625 0.15625 1
POINT_DATA 32768
SCALARS rhonet float
LOOKUP_TABLE default
-3.89619e-06
-9.51275e-05
0.000144792
9.63219e-05
3.56846e-05
0.000120451
-0.000118445
9.18581e-05
0.000154216
2.28997e-05
-3.75606e-05
0.000108726
0.00010382
7.94455e-05
0.000109346
4.99603e-05
8.77432e-05
0.000140236
4.05881e-05
-6.79099e-05
-6.40692e-06
0.000141859
0.000144767
4.77822e-05
3.72678e-05
2.07431e-05
7.7422e-05
9.0589e-05
-1.35218e-05
-7.27429e-05
5.23021e-05
3.97237e-05
4.3669e-05
6.90086e-05
1.24413e-05
0.000171713
1.6807e-05
7.28726e-05
7.73575e-05
-5.53078e-06
2.29322e-05
6.83172e-06
0.000136404
9.3981e-05
2.09386e-05
1.86828e-05
-3.16134e-05
6.95549e-05
0.000116214
7.88721e-05
-1.20074e-05
2.4978e-05
8.34423e-05
0.000148996
3.5595e-05
1.75039e-05
0.000151011
-5.17473e-05
5.67816e-06
7.16951e-05
5.02798e-05
6.0602e-05
7.16839e-06
8.01801e-05
8.22491e-05
-8.03833e-05
4.41819e-05
0.000136175
4.09957e-05
4.82836e-05
7.92341e-05
3.67109e-05
-2.69155e-05
4.96674e-05
-1.15018e-07
5.11557e-05
4.20861e-05
-3.83083e-05
9.21623e-05
0.000106615
8.71842e-05
2.54086e-05
7.49615e-05
0.000101106
4.54688e-05
-4.47989e-06
-1.66914e-05
6.70485e-05
0.000119669
-2.34874e-05
9.00027e-05
-1.47951e-05
-3.90528e-05
-6.21437e-06
-8.99178e-05
5.22715e-05
0.000157961
2.40973e-05
9.16885e-05
-2.49448e-05
0.000157723
9.09192e-05
-3.16976e-06
9.47258e-05
3.90382e-05
0.000130971
-2.58326e-07
-6.85496e-05
2.66265e-06
7.39996e-05
0.00013342
5.79279e-05
2.02984e-05
3.31155e-05
8.04212e-05
4.36598e-05
1.22658e-05
7.49691e-05
5.09605e-05
4.32276e-05
-3.98806e-05
-3.45636e-05
4.04445e-05
2.44898e-05
0.00011572
6.60871e-05
1.82549e-05
8.13099e-05
1.99643e-05
-1.881e-05
0.000119797
9.2616e-05
-2.24449e-06
3.77487e-05
2.0324e-05
6.79679e-06
4.46088e-05
-3.1916e-05
4.68965e-05
-1.15026e-05
-4.98408e-05
2.32955e-05
2.09619e-05
0.000160761
9.88223e-05
2.06393e-06
0.000137836
1.15243e-05
-3.1124e-05
0.000132419
1.78267e-05
2.9132e-05
0.000108428
-8.34581e-06
3.45045e-05
4.32306e-05
5.74638e-06
3.4271e-05
-5.27618e-06
1.75425e-05
7.67778e-05
2.50083e-05
0.00011271
-2.20694e-05
3.25852e-05
2.55229e-05
5.84621e-05
-6.12721e-05
0.000105448
0.000137295
2.50294e-05
4.32237e-05
7.45821e-05
0.000111579
-2.02678e-05
-8.13336e-06
8.72931e-05
-8.23223e-05
1.15579e-05
3.31806e-05
8.87696e-05
-7.06003e-05
-3.18107e-05
5.65359e-06
1.04989e-05
7.98537e-05
4.14201e-05
7.20922e-05
0.000102554
7.46854e-05
2.48838e-05
0.000198125
8.16124e-05
-6.56995e-05
6.24193e-05
0.000201229
4.7522e-05
8.32756e-05
7.86664e-05
-1.63086e-05
5.95989e-05
0.00014917
4.39015e-05
3.83356e-05
-1.0076e-05
6.97708e-05
-5.98878e-05
5.34239e-05
6.86804e-05
8.57904e-05
6.81024e-05
0.000137439
0.000106097
-2.40521e-05
0.00011108
-0.000131281
0.000102691
9.90946e-05
-5.28729e-05
-3.79211e-05
8.69745e-05
0.000114877
0.000176992
3.40524e-05
7.95292e-05
5.67446e-05
-3.69134e-05
-1.514e-05
8.69032e-05
6.8607e-05
6.22834e-06
4.16549e-05
2.36374e-05
2.60692e-05
0.000121307
-3.557e-05
-2.05768e-05
2.75008e-05
5.94512e-05
8.97946e-06
1.84997e-05
8.6694e-05
-5.82663e-05
-3.07453e-07
2.65904e-05
-1.44095e-05
-2.21963e-05
-3.95468e-05
0.000128655
-4.29607e-06
2.10486e-05
-3.8513e-05
0.000102293
2.14379e-05
2.40527e-05
4.18614e-05
-0.0001049
2.47047e-05
-6.30285e-05
-2.51192e-05
-2.38867e-05
5.12266e-05
-2.60446e-05
-7.5764e-05
4.98935e-05
-6.60464e-05
-4.29001e-05
2.33413e-05
-5.99084e-05
-8.02726e-05
3.00189e-06
-4.24262e-05
4.66278e-06
1.08917e-05
-2.15749e-05
-4.06033e-06
-5.82072e-05
-6.74935e-05
-0.000106139
-1.79203e-05
-2.0046e-05
-5.72717e-05
-2.52761e-05
7.73021e-06
-3.07409e-05
-8.53868e-05
-3.53891e-05
-8.36118e-06
2.74415e-05
-7.95681e-05
-6.67487e-05
2.31336e-05
-0.000103178
-3.3788e-05
1.98338e-05
-8.2033e-05
-5.15864e-05
-4.38411e-05
8.67294e-06
3.55999e-05
-2.47126e-05
4.87384e-06
-0.000112385
-3.15167e-05
3.88796e-05
-3.39414e-05
-6.56131e-05
-4.11931e-05
-3.17381e-05
2.98237e-05
-2.8532e-05
-3.54566e-05
-2.34862e-05
-0.00011611
1.48104e-05
-3.3793e-05
4.56305e-05
-5.12691e-05
-5.72854e-05
-3.73457e-05
-3.01475e-05
-6.05669e-05
-1.00286e-05
-7.96345e-05
-0.000109192
1.21043e-05
-4.39818e-05
9.0173e-06
-1.84356e-05
1.72417e-05
-5.13536e-05
-1.04336e-05
4.76097e-05
-2.54943e-05
5.74084e-05
2.15834e-07
-3.24127e-05
-5.04444e-05
-8.22558e-05
2.8483e-05
2.4466e-05
-6.16948e-05
-0.000158637
-4.16979e-05
-6.56582e-08
-1.69134e-05
8.77306e-06
5.33126e-05
3.15614e-06
-1.07941e-05
2.47143e-05
-5.96535e-06
3.43238e-05
-2.73112e-05
-6.84673e-06
-1.89524e-06
-4.36435e-05
-0.000106617
-3.96519e-05
-2.96773e-05
-3.55603e-05
1.64222e-05
-5.91242e-05
-4.27187e-05
-1.06753e-06
-6.00016e-06
5.43516e-05
-3.54238e-05
-7.13802e-05
-7.13194e-05
4.01705e-05
1.15475e-05
-5.23513e-05
-1.11548e-05
9.64559e-06
3.1899e-05
-8.57754e-05
1.39618e-05
-6.13797e-05
-7.74162e-06
-3.48629e-05
-1.67097e-05
-4.55657e-05
-6.96026e-05
1.70253e-05
-4.881e-05
-2.07967e-05
1.59817e-05
-1.05527e-05
-2.35449e-05
-1.24415e-05
-3.31046e-05
-4.60126e-05
-1.3358e-05
-4.22456e-05
-8.32276e-06
-5.94473e-05
-7.8258e-05
8.69692e-06
-2.02004e-06
-8.3825e-05
1.05489e-05
-3.22351e-05
-4.36762e-05
-0.00011768
-8.72626e-06
-3.99578e-05
-3.83079e-05
-7.16746e-05
9.37004e-06
3.00047e-05
-1.70406e-05
-2.39994e-05
-1.85613e-06
-5.11226e-05
-2.02559e-05
-8.13487e-05
-6.40949e-05
3.62427e-05
-8.02714e-05
-7.56327e-06
2.37464e-05
2.2117e-05
-5.27814e-05
-2.42505e-06
3.60706e-05
-9.46564e-05
1.02374e-05
-2.21475e-05
3.97032e-05
-4.13512e-05
-2.55483e-05
-5.70063e-06
3.04063e-05
-6.90698e-05
-4.77678e-05
3.67501e-05
-4.79701e-06
2.05857e-06
-4.86564e-05
-0.000107547
-6.60245e-05
-2.66007e-05
-2.24793e-05
-9.32999e-06
-1.88572e-05
-0.00010145
6.32252e-06
3.69592e-05
4.6104e-06
-1.0849e-05
-2.36547e-05
-8.50842e-05
-3.90909e-05
4.81101e-05
-6.97782e-06
-7.51885e-05
-6.46278e-05
-4.37897e-05
3.07561e-05
-5.53513e-05
1.83145e-06
-5.12165e-05
9.71672e-05
1.17975e-05
-4.14072e-05
-5.2241e-05
-4.83998e-05
-4.73995e-05
3.21256e-05
-3.50828e-05
-7.29866e-05
1.69734e-06
-2.53877e-05
-1.98884e-05
4.50609e-06
-1.73199e-05
7.05674e-05
5.70891e-05
-6.70665e-05
-3.48976e-05
-2.73383e-05
-7.02047e-05
-2.06067e-05
2.42677e-05
8.58862e-05
-8.70343e-05
6.93498e-06
-4.34539e-05
-3.62699e-05
6.90327e-05
3.75877e-05
-6.27583e-05
-4.99119e-06
2.55415e-05
-5.11217e-05
2.26244e-05
-1.34829e-05
-4.80205e-05
-1.98244e-05
3.0552e-06
3.73243e-05
3.42685e-05
-1.23483e-05
-2.31676e-05
-0.000132199
-1.66823e-07
-7.60681e-06
5.12581e-05
-7.35326e-06
-7.3632e-05
5.01669e-06
-3.30424e-05
-1.99105e-06
5.00254e-05
-7.79773e-06
-2.33892e-05
-8.48016e-06
1.05472e-06
-1.92297e-05
7.13232e-05
-5.15231e-05
7.82229e-06
3.11635e-05
6.53436e-05
-4.67906e-05
-2.90641e-05
-1.14903e-05
-2.49569e-05
-9.3428e-05
-2.04821e-05
3.51593e-05
4.88631e-05
3.64081e-05
-1.64524e-05
3.77698e-05
6.14575e-05
-4.75245e-05
4.4845e-05
4.40084e-05
9.82336e-06
-5.10868e-05
1.23072e-05
2.3444e-05
7.04302e-05
4.96686e-05
-3.57148e-05
2.2529e-05
5.27373e-06
-2.51167e-05
4.80089e-05
3.40394e-05
2.11629e-05
-2.892e-05
-7.34259e-05
2.16754e-05
3.48731e-05
1.42131e-06
-4.63354e-05
1.81713e-06
-1.65714e-05
5.22442e-05
1.92714e-05
-4.25102e-05
-9.05946e-05
6.88445e-06
2.94284e-05
9.43267e-06
3.90759e-05
-4.01766e-05
2.79776e-05
-3.30706e-05
9.02761e-05
1.87056e-05
2.19356e-05
-2.38946e-05
3.89216e-05
7.9507e-05
-1.42981e-06
-1.07867e-05
-4.31224e-05
-5.63427e-05
3.6556e-05
5.69131e-06
-2.97657e-05
3.18503e-05
-3.75102e-05
-1.9768e-05
6.36959e-05
5.06416e-05
-4.80588e-05
-4.18774e-05
-9.31288e-06
-2.63554e-05
-1.33656e-05
5.09447e-05
7.41071e-05
-1.38802e-05
-5.52131e-05
-6.02389e-05
2.25473e-05
4.01655e-05
-3.5647e-05
4.60854e-05
6.04026e-05
1.00422e-05
-2.72852e-05
-6.84024e-05
1.03846e-05
-3.90665e-05
-6.67316e-05
1.8933e-05
-3.86648e-05
-7.26084e-05
1.55345e-05
3.44662e-05
-9.18203e-06
-2.5239e-05
3.49991e-05
6.71946e-05
-7.81391e-06
-2.34852e-05
1.90876e-05
-3.45565e-05
-3.24659e-06
3.17621e-05
-4.33623e-05
-4.4457e-05
-1.29162e-05
6.19073e-05
-1.54718e-05
-1.92423e-05
-9.33651e-07
1.07799e-05
-2.67866e-05
6.43284e-05
6.28526e-07
3.16113e-05
-3.45439e-05
-2.02105e-05
3.29812e-05
-8.92929e-06
-5.3377e-05
-6.58381e-05
-1.97736e-05
2.38314e-06
3.65477e-05
8.36828e-06
-1.87824e-06
1.48289e-05
-2.75736e-05
4.24776e-05
2.79523e-05
9.69104e-05
6.65832e-05
1.94258e-05
1.45668e-05
-1.36635e-05
5.90177e-05
5.77694e-05
-3.53304e-05
8.65555e-05
-1.88482e-05
-2.10226e-05
-5.39363e-05
1.12334e-05
-1.22982e-05
7.03161e-05
-1.07874e-05
6.14882e-06
5.77939e-05
3.47511e-05
-3.56396e-05
-5.85616e-06
4.38266e-05
2.9995e-05
1.48879e-05
3.09432e-06
-6.29965e-05
1.44138e-05
-9.34467e-05
4.10879e-05
-3.34159e-05
-7.29718e-05
6.78655e-06
-4.31376e-05
3.26064e-05
-5.40698e-05
-3.51894e-05
-7.38085e-06
-3.46787e-05
7.7819e-06
5.28595e-05
1.66988e-05
-1.61526e-06
7.61894e-05
-2.89618e-06
5.27897e-05
3.30989e-05
2.69051e-05
3.20118e-05
-4.14012e-05
-7.91214e-05
6.70401e-06
-3.71058e-05
3.38303e-07
3.12877e-05
2.55889e-05
4.62426e-05
-7.34476e-06
3.85568e-05
-1.82488e-05
8.60404e-05
-3.51756e-05
-2.42111e-05
-2.44784e-05
3.96883e-05
3.96362e-05
-5.59632e-06
-1.59821e-05
5.26491e-05
-3.12827e-05
-9.51276e-06
1.32088e-05
3.03081e-05
4.01441e-05
-6.21306e-05
6.55744e-06
-4.02799e-05
7.68162e-05
-2.30573e-05
2.42691e-06
-2.36242e-05
-7.65757e-06
1.05554e-06
-7.5846e-05
1.89051e-05
4.24928e-05
2.7332e-06
-4.68807e-05
-0.000111356
2.32969e-05
1.92827e-05
1.66963e-06
4.11416e-05
-1.26258e-05
3.11423e-06
-2.1539e-05
-7.41895e-05
3.57796e-05
1.81664e-05
-4.43207e-05
1.38059e-05
2.49416e-05
-1.40064e-05
-5.45264e-05
-1.59676e-05
4.84828e-05
-4.4998e-06
-0.000139602
5.79734e-05
3.08063e-05
0.000100899
-3.72755e-05
3.82719e-05
1.96728e-05
-2.19459e-05
-3.16999e-05
-3.15025e-05
5.79791e-05
8.84752e-05
-9.06736e-06
-5.99887e-05
9.21835e-06
8.46386e-06
-1.88593e-08
-2.07853e-05
-3.90373e-05
0.000130274
-3.43213e-05
-4.70513e-05
5.37112e-05
-2.79723e-06
2.82284e-06
-3.7919e-05
-6.05407e-05
4.75419e-05
4.84362e-05
-1.75372e-05
3.74633e-05
-5.19104e-05
4.18174e-05
3.39499e-05
-6.99728e-05
2.73659e-05
3.88058e-05
1.6781e-05
-5.26782e-05
6.28687e-05
-2.19623e-05
-4.31013e-05
-7.40355e-06
-2.66795e-05
4.25464e-05
3.64985e-06
2.75731e-05
-4.73883e-05
-6.43707e-06
3.03094e-05
-2.26302e-05
-8.19348e-05
-4.95827e-05
1.36234e-05
3.3637e-05
4.53531e-05
-3.78171e-05
6.72052e-05
-2.02064e-05
-6.23043e-05
4.74694e-05
4.62765e-05
1.24052e-05
3.82877e-05
2.15031e-05
5.87142e-05
-6.49996e-05
-4.25668e-05
-1.34124e-05
4.3906e-05
4.787e-05
-2.23202e-05
-6.05178e-05
1.98302e-06
-2.43739e-06
-3.00118e-05
1.48921e-05
2.92043e-05
7.28869e-05
7.06639e-05
-3.58254e-05
-0.000140628
2.58456e-05
1.20327e-06
-2.88254e-05
-4.697e-05
5.72425e-05
3.12581e-05
1.75566e-05
-0.000107817
-1.5847e-05
1.13324e-05
3.99521e-05
3.28133e-05
-4.30107e-05
3.20363e-05
3.74881e-05
-3.91935e-05
2.83305e-05
3.71941e-05
-1.3714e-05
3.5636e-05
-5.44162e-05
8.30445e-05
3.03239e-05
-1.94272e-05
-2.67292e-05
6.84275e-05
4.12182e-05
-2.91599e-05
3.35346e-05
3.9214e-05
3.68371e-05
-3.48372e-05
-2.81513e-05
1.4167e-05
3.52948e-05
-7.1567e-05
-2.16167e-05
4.60049e-05
3.64991e-05
2.31864e-05
-3.12357e-05
-7.13489e-05
2.25483e-05
-3.52724e-05
7.69852e-05
-4.1643e-05
-1.37865e-05
7.45143e-05
-5.40671e-05
4.00399e-06
-1.77847e-05
-5.58048e-05
2.01229e-05
5.95942e-06
5.05818e-05
6.31156e-05
-6.58245e-05
8.14187e-05
-4.32237e-05
-2.44335e-05
2.67201e-05
4.39433e-06
9.56783e-06
7.6557e-06
4.39084e-06
-4.22162e-05
2.17024e-05
1.01281e-05
-1.56355e-05
-7.88145e-05
-2.79718e-05
-7.33184e-06
2.62834e-05
6.22892e-06
2.38391e-05
-8.04104e-06
5.2616e-05
3.00959e-05
-3.07956e-05
-8.68581e-05
1.14749e-05
3.87332e-05
1.1161e-05
-2.85618e-05
-9.12498e-06
-2.48151e-06
2.21182e-05
-3.22959e-06
2.53447e-05
2.25464e-05
3.20961e-05
-2.08742e-05
-3.06312e-06
6.05534e-06
-3.41376e-06
3.49665e-05
-2.44869e-05
5.34741e-05
1.96627e-05
1.27882e-05
-1.15685e-05
2.92524e-05
2.87103e-06
3.39587e-05
-1.87171e-05
-2.88652e-06
-6.90412e-05
2.46686e-05
-5.03927e-06
-1.26837e-05
2.05983e-05
-2.63399e-05
-2.66207e-06
-3.02469e-05
-7.38932e-05
-1.16545e-05
0.000124287
-9.67181e-05
2.30561e-05
4.08882e-05
1.12081e-05
1.89695e-05
2.29742e-05
-6.504e-05
-1.85566e-05
-3.58941e-05
9.88808e-06
-2.25086e-05
-0.000114619
5.06439e-05
-0.000120174
-5.21545e-05
0.000129995
-2.85547e-05
-3.29313e-05
1.39811e-05
-3.08827e-06
-4.58467e-06
-6.87173e-05
5.01284e-07
2.5406e-05
-3.0681e-05
-4.83695e-05
-2.09834e-05
3.77463e-05
3.99081e-05
1.09908e-05
-3.37751e-05
2.43067e-05
4.91925e-05
4.58608e-05
-7.13918e-05
-6.57425e-05
-4.4868e-05
5.14663e-05
2.45089e-06
-1.54669e-06
-6.96708e-05
3.42261e-07
-1.04241e-05
6.894e-06
-2.29038e-05
-2.35566e-06
-3.06226e-05
3.27406e-05
-3.2268e-06
-1.0337e-05
-2.52567e-05
2.84621e-05
9.52228e-05
-3.02619e-05
3.2171e-05
4.43812e-05
-4.54087e-05
-0.000101102
-3.30774e-05
0.000111009
6.25447e-05
-5.28281e-05
-0.000107185
-1.18127e-05
6.85671e-05
3.46118e-05
-5.40469e-05
-5.21375e-05
4.75177e-05
-4.06374e-05
-0.000119435
6.12026e-05
-1.81564e-05
-3.11729e-05
0.000105493
-4.54731e-05
-9.29438e-05
-5.3846e-05
9.50543e-06
-5.54989e-05
1.67229e-05
4.28164e-06
-7.23695e-05
6.52438e-06
4.59251e-05
6.77758e-06
-2.06695e-06
5.32222e-05
2.83385e-05
-3.75983e-05
-4.8551e-05
0.000104193
-1.62807e-05
-5.7281e-06
-2.96999e-05
-2.67231e-06
-4.58118e-05
8.22777e-06
-1.31116e-05
-4.38883e-05
-3.36708e-05
-5.49549e-05
4.80606e-05
-3.43903e-05
5.50937e-05
-3.26777e-05
-2.49943e-05
-9.60939e-06
3.26963e-05
-4.34382e-05
8.21737e-05
3.99025e-06
1.01075e-05
-2.64165e-05
-1.68523e-06
5.18317e-05
-5.05236e-05
7.65339e-05
-2.69973e-05
-2.84475e-05
5.25347e-06
1.9129e-05
5.75269e-05
-1.5507e-05
1.41474e-05
1.54796e-05
9.67543e-05
-2.60591e-05
2.79723e-06
-6.8649e-05
-4.36441e-06
5.35557e-06
-6.22706e-07
-1.12273e-05
2.76114e-05
-7.06455e-05
2.38863e-05
3.64638e-05
-5.86093e-06
-1.47321e-05
5.85361e-05
-1.46334e-06
5.05475e-07
-8.36398e-06
-6.6882e-05
-7.45873e-06
-5.66771e-05
5.49144e-05
-1.55679e-05
-6.51171e-05
1.93971e-05
-2.50093e-05
1.49549e-05
4.44492e-05
-8.8783e-06
-5.64916e-05
-7.07043e-05
-8.34197e-06
-2.963e-05
-2.15275e-06
-1.83218e-05
-1.89326e-06
-0.000102778
8.74838e-06
3.24823e-05
3.07965e-05
-0.000103662
-3.61558e-05
2.02425e-05
8.39117e-05
4.75277e-06
-1.31453e-05
3.19693e-05
7.1479e-07
-3.71371e-05
-7.51375e-05
-6.92117e-05
-2.21247e-06
-7.09704e-05
1.36718e-06
-4.37514e-05
5.21014e-05
-3.20331e-05
-2.11227e-05
9.38214e-06
-1.06054e-06
4.85103e-06
-2.59299e-05
5.72976e-05
-2.03844e-05
4.02204e-05
1.71228e-05
-4.36113e-05
4.79131e-06
-4.09901e-05
-3.49013e-07
2.30945e-05
-3.31621e-05
1.34481e-05
1.23589e-05
-2.61044e-05
-4.63814e-05
1.17684e-05
-4.40204e-05
0.000100773
4.16168e-05
5.95758e-05
5.7274e-06
3.63542e-06
3.7217e-05
-2.83865e-05
-2.65327e-05
-3.87036e-05
-3.3244e-05
-2.94473e-06
-4.8345e-06
-7.42386e-05
-9.2118e-05
-4.12925e-05
9.36044e-05
1.79687e-05
2.46149e-05
5.07896e-05
-3.9092e-05
-4.86937e-05
-6.07772e-05
2.91871e-05
-7.01522e-05
2.39771e-05
5.71001e-05
1.43815e-05
-8.54451e-05
6.48921e-05
5.64114e-06
1.15014e-05
-0.000120717
5.33736e-05
7.36078e-05
5.39131e-06
1.38737e-05
1.18415e-05
-9.65106e-06
3.66952e-05
-3.03434e-05
4.71817e-05
6.17245e-05
-4.68048e-06
-4.04328e-05
-2.98404e-05
4.8338e-06
-1.19186e-06
4.36944e-05
-1.84937e-06
-1.13768e-05
-1.70618e-05
7.82476e-05
-4.58385e-06
1.79145e-05
-3.62848e-05
-7.78632e-05
7.38348e-05
-9.19309e-05
-5.20796e-06
2.09284e-05
2.3063e-06
7.05891e-05
3.83811e-05
7.42124e-06
5.50144e-05
-1.01449e-05
4.60938e-05
-1.68382e-05
-5.88747e-05
-4.919e-05
5.14216e-05
5.45887e-05
-1.98531e-05
5.81003e-05
3.02006e-05
1.38809e-05
2.24966e-05
6.25565e-05
6.90145e-06
-8.80089e-05
-1.34254e-05
-5.00749e-06
4.86997e-05
5.99254e-05
6.30914e-05
1.42632e-06
2.14425e-05
-2.66379e-05
-9.90392e-06
-6.22045e-05
-1.60282e-05
3.25942e-05
-3.85353e-05
-1.90415e-05
5.31537e-05
-2.28162e-05
1.541e-05
-4.23557e-05
-5.64614e-07
-5.11482e-05
-1.07911e-05
-0.000114606
2.06351e-05
1.91699e-05
7.28536e-05
2.73278e-05
-4.94906e-05
5.05786e-05
5.2787e-05
6.41989e-05
-7.9904e-06
4.4397e-05
-4.86516e-05
-2.58869e-05
-3.12886e-05
9.76645e-05
-4.46019e-05
-4.87098e-05
2.70447e-05
-5.04586e-05
1.36555e-05
-9.01835e-05
-0.000131355
6.04797e-05
5.67489e-05
-1.70096e-05
2.47731e-05
-9.10845e-06
5.16701e-05
-8.06582e-05
3.8291e-05
3.78337e-05
1.5907e-05
-7.97631e-06
-6.65523e-06
3.57422e-05
3.13777e-05
-9.32615e-05
-4.72955e-05
-9.3808e-05
-4.97691e-05
6.84746e-05
-3.54396e-05
9.14524e-06
-3.66226e-05
3.87209e-05
1.69345e-05
4.47613e-05
-5.40488e-05
2.94939e-05
6.61318e-05
1.22408e-05
-6.64289e-05
1.13389e-06
1.48164e-05
-1.36934e-05
6.08949e-05
-9.0932e-07
7.89309e-05
9.09634e-06
5.26159e-05
-9.66366e-05
3.41136e-05
6.60541e-06
-1.27819e-05
-4.43454e-05
-2.06704e-05
3.1509e-06
-9.30857e-07
-6.30611e-05
-0.000100798
-4.1587e-05
-9.1508e-05
-4.81859e-05
5.62917e-05
-1.52455e-05
-5.22909e-05
-2.41199e-05
-1.08294e-05
-4.57693e-05
-4.23093e-05
1.19058e-05
2.8361e-05
-1.41363e-05
-5.28245e-05
-6.13481e-05
1.77325e-05
1.0733e-05
-2.08276e-05
5.9631e-05
1.79023e-06
2.51201e-05
-2.36353e-05
5.88672e-05
3.18949e-05
4.76104e-05
-7.31895e-05
7.2246e-05
-0.000100922
-6.24103e-06
6.49318e-05
8.4897e-06
3.23069e-05
-3.30654e-06
-4.32204e-05
2.37767e-06
1.99965e-05
-1.2729e-05
9.59344e-06
3.61406e-05
2.75427e-05
6.92133e-05
-2.72377e-06
-6.32239e-05
-6.14533e-06
-7.611e-06
-1.02117e-05
4.45035e-05
5.20097e-06
2.67308e-05
-6.62985e-06
-4.79829e-06
-2.94806e-05
1.43549e-05
5.68992e-06
6.79195e-05
9.01241e-06
3.43907e-05
1.84249e-05
1.29042e-05
-4.46523e-05
3.4593e-05
3.36544e-05
1.93843e-06
-1.88095e-05
4.46878e-05
-5.23889e-05
6.75356e-05
7.74647e-05
6.37176e-06
8.13848e-05
-3.18106e-05
2.20669e-05
-1.73564e-05
-2.87802e-05
-6.86586e-05
1.19233e-05
2.47906e-05
1.23703e-05
-3.48676e-05
2.16777e-05
-2.20749e-05
-3.52517e-06
1.23344e-05
1.70944e-06
2.97129e-05
-6.88566e-05
-1.33738e-05
9.18955e-05
-3.43514e-05
1.47281e-05
-1.23633e-05
4.94565e-05
2.42065e-05
-4.44682e-05
5.05936e-05
0.000106778
9.66932e-05
6.52503e-05
8.90228e-07
-7.20681e-06
-1.14567e-05
6.66904e-05
-5.44812e-06
4.01792e-05
-2.33978e-05
4.1756e-05
-3.41273e-05
-2.13976e-05
6.28142e-06
-2.62642e-05
3.58216e-05
-8.93143e-05
4.69461e-05
-3.57559e-05
3.30252e-05
2.34642e-05
-9.97116e-05
2.21338e-05
3.57017e-05
-1.87461e-05
2.13265e-05
-6.78233e-05
2.71618e-05
-5.16983e-05
5.68142e-05
4.88441e-05
-1.74809e-05
3.8041e-05
4.54166e-05
1.17881e-05
-8.37981e-06
2.07488e-05
-2.05641e-05
5.28251e-05
-7.57057e-05
-4.26269e-05
-7.6727e-06
2.04982e-05
-1.54353e-05
-3.12331e-05
1.174e-05
6.21661e-05
4.88079e-05
4.33589e-06
-0.000127571
-5.02235e-05
-6.86678e-05
-6.60998e-05
3.09134e-05
7.61506e-05
-7.01353e-05
-7.02997e-06
9.2847e-06
4.82404e-05
3.83996e-06
8.47317e-06
-6.75765e-05
-1.85834e-05
1.21738e-05
-8.66794e-06
-3.1952e-05
-1.42835e-05
3.18384e-06
7.33021e-06
1.82409e-05
2.56517e-05
-6.78838e-05
-4.71435e-06
3.49289e-05
-5.05327e-05
1.07934e-05
-1.50145e-05
-1.6305e-05
-2.95388e-05
9.53889e-05
2.63908e-05
-1.76691e-05
-2.1502e-05
-1.2799e-05
8.03289e-06
-1.35808e-05
2.63904e-05
-7.18539e-06
-1.90843e-05
2.17279e-05
5.39322e-05
-9.03435e-05
5.79043e-05
-1.44779e-05
-1.46058e-05
-3.83228e-05
-4.54388e-05
2.61619e-05
5.74816e-05
2.0716e-05
1.80588e-05
2.61943e-05
-7.22171e-06
-2.65969e-05
2.38707e-05
-3.81791e-05
-3.29993e-05
2.86612e-05
4.19596e-06
5.34146e-05
-1.29022e-05
-4.54648e-06
9.10498e-05
1.63318e-05
1.69139e-05
-4.63269e-05
3.55744e-05
-3.91715e-05
2.29462e-05
1.72232e-05
3.08617e-06
6.80585e-05
6.72808e-05
-1.70236e-05
-7.54709e-06
4.55868e-05
-1.23878e-05
-6.61262e-06
0.000122597
3.26275e-05
1.82122e-05
2.4949e-05
-5.22537e-05
-2.22393e-05
-5.70162e-05
1.30443e-06
7.69063e-06
2.41782e-05
1.07718e-05
-5.20679e-05
1.76711e-05
6.44927e-05
-6.11884e-05
5.44075e-05
-4.49319e-05
-7.05202e-05
6.23101e-06
3.2792e-05
4.70876e-05
1.32702e-06
1.32957e-05
-7.78601e-05
-2.81833e-05
-6.89272e-06
0.000112601
3.6848e-05
-3.34252e-05
4.85627e-05
3.18347e-05
1.14893e-05
6.94899e-05
0.00013327
-7.38587e-05
-4.20369e-05
-1.68968e-05
2.04113e-05
8.13219e-06
-1.95544e-05
3.47547e-05
5.05912e-05
-6.30399e-05
-4.22695e-05
1.79632e-05
5.7035e-05
-6.66594e-07
2.83977e-05
-3.478e-05
-8.23165e-05
-3.16929e-05
-5.5102e-05
-1.6948e-05
6.44e-05
-5.57774e-05
5.25212e-05
-0.000112341
-7.10653e-05
-1.52237e-05
-1.60275e-05
-3.59301e-05
5.28328e-05
4.40276e-05
-4.75463e-06
-6.05781e-05
-2.03253e-05
1.72125e-05
2.40915e-05
-2.14998e-05
-3.80276e-05
1.84209e-05
-5.22968e-05
-1.48043e-05
-9.0426e-05
-1.86135e-05
-1.40979e-05
0.000121307
-2.54707e-05
5.25207e-05
3.79471e-05
3.11936e-05
-3.8531e-05
-5.10248e-06
-4.49665e-05
2.62945e-05
1.12435e-05
-1.86053e-05
1.7443e-05
-3.76215e-05
8.71089e-06
-3.17951e-05
7.14652e-05
-7.47014e-05
0.000101809
5.1964e-05
3.18049e-05
1.94153e-05
4.63659e-05
-3.00468e-06
1.62402e-05
7.99991e-05
3.67581e-06
-1.37994e-05
-5.21085e-05
-5.62186e-05
2.68224e-05
-3.7802e-05
-4.78228e-05
2.88629e-05
-2.68994e-05
-1.16548e-05
-5.02805e-05
3.10761e-05
-2.00592e-05
3.81091e-05
-8.71739e-05
-4.69054e-05
1.67189e-05
4.9243e-05
9.12824e-06
1.42597e-06
-6.69417e-05
-7.27304e-05
-1.43613e-05
-9.74513e-06
-1.56973e-05
2.67384e-05
-9.2122e-05
-5.88645e-05
-1.25878e-05
5.106e-05
-8.97495e-05
7.86015e-05
1.309e-05
1.5168e-05
-0.000114672
-4.19712e-05
1.06479e-05
8.84157e-05
-6.75221e-06
-6.93044e-06
1.08089e-05
-9.15194e-05
-1.49584e-05
1.07783e-05
5.18092e-05
-3.28284e-05
4.25936e-05
9.43104e-06
7.85687e-07
4.03611e-05
-3.83519e-06
2.66726e-05
-2.21874e-05
6.1118e-07
2.16416e-06
1.83086e-05
-2.01634e-05
-7.52347e-05
-8.20156e-05
-4.08835e-05
3.06885e-05
3.11447e-05
-1.7603e-05
-1.14895e-05
3.87502e-05
9.27411e-06
1.17533e-05
-4.44881e-05
-5.27482e-05
-4.2652e-05
9.60724e-05
-3.91065e-05
-6.17565e-05
-4.5125e-05
4.71971e-06
-4.15777e-05
-1.74786e-06
2.57662e-05
4.81142e-05
-3.50765e-05
2.89145e-05
3.42631e-05
2.19492e-05
-2.03147e-05
-2.84293e-05
2.95842e-05
6.23256e-05
1.8149e-05
-1.77093e-05
-4.22897e-05
-3.51795e-06
6.32225e-05
3.54694e-06
7.63242e-06
-5.29364e-06
1.01699e-05
2.74987e-05
2.91363e-05
-2.60759e-05
-5.97402e-05
8.67876e-05
3.29311e-05
-1.45728e-05
-1.4237e-05
5.72901e-05
3.8431e-06
9.81893e-05
0.000121367
-2.85937e-05
2.49984e-05
7.87177e-06
-1.86716e-05
-1.70157e-05
-7.32373e-05
0.00011208
-1.25977e-05
-6.0178e-05
7.86234e-06
3.08848e-05
9.78343e-06
7.84092e-06
1.71365e-05
4.91273e-08
-2.67226e-05
-2.56815e-05
-4.13369e-05
-4.55835e-05
-1.7624e-05
-7.7656e-06
-4.82692e-05
7.1398e-05
1.64239e-05
3.01736e-05
-3.19595e-05
1.39842e-05
-1.39403e-05
-1.55892e-05
4.47652e-06
-1.65856e-05
8.27657e-05
5.56016e-05
5.67292e-06
3.54118e-05
2.8623e-06
-1.63051e-05
2.07491e-05
9.63197e-06
-1.45015e-05
-4.88877e-05
-4.07479e-05
-9.69181e-06
4.12577e-05
-2.15805e-05
-3.41526e-05
5.64966e-05
-1.37315e-05
-5.04201e-05
3.84738e-05
-2.33628e-05
-1.19605e-06
-5.94467e-05
5.95243e-06
6.40078e-05
-7.39722e-05
-2.23714e-05
-4.28886e-06
-7.4316e-05
-1.58097e-05
5.60062e-05
-2.41022e-05
5.20147e-05
4.58722e-05
-3.16431e-05
0.000122277
2.89967e-05
1.20705e-05
-2.74092e-05
-3.44679e-05
-3.20198e-05
5.98454e-05
4.27905e-05
-2.5427e-05
-1.62862e-05
4.25266e-05
4.55978e-05
-7.0805e-05
-4.53842e-05
-1.75916e-05
6.0013e-05
3.70811e-05
4.36978e-05
-7.64523e-06
2.17557e-05
1.48437e-05
1.47811e-05
3.49523e-05
1.44989e-05
-7.17349e-05
5.90791e-05
3.93528e-05
-1.6212e-05
4.74533e-05
-1.84561e-05
-3.84229e-05
8.4609e-05
5.78987e-05
5.29934e-05
-2.82947e-05
-1.40261e-05
-3.38163e-06
6.56864e-05
1.70164e-05
1.81665e-05
-1.4518e-05
-3.22151e-05
8.30146e-06
5.70649e-05
3.72084e-05
6.89615e-05
3.92868e-05
3.0786e-05
-1.59349e-05
4.175e-05
8.47341e-06
-3.21828e-05
-1.07549e-05
-1.45923e-05
5.3932e-05
1.21886e-05
2.11239e-05
-2.64748e-05
1.12986e-05
-2.3908e-05
-1.4451e-05
1.09985e-05
-7.73557e-06
4.69084e-06
1.68592e-05
6.67061e-05
1.57991e-05
-0.00010758
-8.24989e-05
6.52298e-06
-5.85072e-05
5.17322e-05
1.84858e-05
1.66775e-05
-7.07678e-05
5.68538e-06
-1.86225e-05
-4.33436e-05
5.83277e-05
-4.15357e-05
-7.76743e-05
-1.33209e-05
-3.7475e-05
-1.09966e-06
5.06311e-05
3.43452e-05
5.214e-05
2.95318e-05
4.71444e-05
-2.02375e-05
0.000134813
5.51661e-05
-3.82708e-05
-1.12217e-05
0.000111733
1.12841e-06
-1.38341e-05
-2.07331e-05
-1.0534e-05
5.75127e-06
2.51083e-05
-6.47182e-05
1.22248e-06
0.00011825
2.02318e-05
-6.9679e-05
-8.34579e-05
9.0689e-05
4.29547e-05
-6.09938e-05
-2.33599e-06
4.52402e-06
-2.48618e-05
-7.49836e-05
-6.3011e-06
3.3979e-05
6.28864e-05
-2.65916e-06
-2.97544e-05
-6.67726e-05
-1.08317e-05
7.42311e-06
3.03178e-05
-1.26918e-05
1.26475e-05
-3.24745e-05
-1.54031e-05
4.65964e-05
-6.0664e-07
-7.33234e-05
-3.61169e-05
3.19347e-05
5.07124e-05
5.52046e-05
-3.86607e-05
-2.71013e-05
-1.73214e-06
4.00438e-05
-1.28824e-05
1.1524e-05
2.7539e-05
1.51007e-05
2.02364e-05
3.2782e-05
-0.000103583
-2.37202e-05
5.62989e-05
-3.56053e-05
-8.5641e-05
0.000101618
-2.90702e-05
2.15793e-05
-5.19506e-05
6.29353e-06
-5.95591e-05
3.80189e-06
-4.01163e-05
2.2179e-05
-9.73744e-06
6.35826e-05
-2.76126e-05
-2.54393e-05
9.06725e-05
-5.55891e-05
-3.5144e-05
1.47809e-05
-2.30939e-05
3.46849e-05
-4.10144e-05
-1.09316e-05
2.98412e-05
3.45649e-05
-4.78465e-05
-5.78742e-05
-3.72982e-05
3.5862e-05
-1.02355e-05
-1.76752e-05
3.83474e-05
4.55126e-06
-3.07265e-05
-6.31746e-05
6.19097e-06
-5.68883e-05
0.000120349
-0.000117729
-6.80874e-05
1.01874e-05
-1.02164e-05
2.82159e-05
-1.96022e-05
-6.25593e-06
3.5075e-05
9.93186e-06
-5.96484e-05
5.40578e-05
-2.97574e-05
-7.25733e-07
-9.39087e-06
-2.64805e-05
5.89002e-05
9.35842e-05
7.95017e-05
-1.68919e-05
-6.82935e-05
-7.77041e-05
4.75619e-05
-1.31782e-06
1.17448e-05
5.16311e-05
-6.31508e-05
2.21431e-05
3.45728e-05
-3.8962e-05
4.92727e-05
9.85363e-06
-2.73692e-05
-7.18015e-05
-2.2077e-06
9.41253e-06
5.68599e-05
-2.01399e-05
-8.62218e-06
7.08958e-06
9.574e-07
-2.91981e-05
-3.67721e-05
9.86853e-07
-7.08329e-06
-7.77076e-05
4.07128e-05
2.28045e-05
-2.33534e-05
-2.82734e-05
6.35535e-06
-3.10614e-05
-2.37789e-05
5.87658e-05
3.77756e-05
-8.88546e-05
1.88748e-05
2.82149e-05
2.42069e-05
-1.97265e-05
3.13721e-05
2.67721e-05
-2.78911e-05
-1.14416e-05
4.39794e-05
-1.84716e-05
6.28969e-06
-9.41602e-06
3.67077e-05
-1.65387e-05
-2.21916e-05
-3.26345e-05
2.11539e-05
-9.05287e-05
-2.25269e-05
7.17794e-06
-1.67806e-05
-5.12952e-05
-4.15264e-05
3.02573e-05
1.87575e-05
1.34516e-05
6.79977e-05
0.000103677
-2.68696e-05
-5.62214e-05
-7.36886e-06
-8.72905e-06
-8.22113e-06
-0.000119192
3.07658e-05
9.9708e-05
7.93553e-05
2.35238e-05
2.89548e-06
3.23565e-05
6.61879e-06
-1.27405e-05
-1.1237e-05
3.50259e-06
6.08936e-05
-6.73486e-06
5.99329e-05
-9.10822e-06
-4.9344e-05
-1.25009e-05
-1.79212e-05
3.41784e-05
-3.37976e-05
7.3954e-06
5.9454e-05
0.000102923
1.5897e-05
2.07406e-06
6.60843e-05
-5.49529e-05
-6.42203e-05
4.83624e-06
5.86052e-05
-3.53621e-05
-0.000113618
-3.21863e-05
8.25245e-06
3.03733e-05
4.09456e-06
1.2588e-05
-2.57909e-05
4.03007e-06
-1.99422e-05
-0.000115459
-8.30356e-06
2.34321e-05
1.67686e-05
-9.89949e-06
-1.77936e-05
3.41062e-05
5.3838e-05
-8.89762e-07
-3.26863e-05
-1.44829e-05
1.08394e-05
2.86293e-05
1.41955e-05
-1.13217e-05
4.36335e-05
-9.70019e-06
4.36596e-05
-6.26023e-06
-6.49592e-05
8.33396e-05
7.37351e-06
-2.33585e-05
-5.29964e-05
8.21927e-06
-7.67082e-05
-5.47343e-05
1.69987e-05
-2.35282e-05
6.93039e-05
-5.89245e-05
-1.5897e-05
-3.797e-06
-4.36552e-05
1.7503e-06
6.90855e-06
-1.56343e-05
-1.26812e-05
-6.31332e-06
-2.87474e-05
6.35836e-05
-1.27363e-05
2.98875e-05
-1.94585e-05
0.00010666
-6.87316e-05
2.64263e-06
7.9783e-05
-7.28986e-05
-2.11624e-05
-1.82842e-06
-5.65487e-06
-3.07189e-05
-1.66125e-07
6.13107e-05
-4.53602e-05
-3.93705e-06
2.74233e-05
5.10011e-05
6.30121e-06
2.1523e-05
-5.9315e-05
-4.52385e-05
-4.56916e-05
-4.39744e-05
-2.38915e-05
-5.03432e-05
-2.24274e-05
-6.28908e-05
1.11946e-05
0.000117078
1.08844e-05
1.60316e-06
7.11577e-06
-1.24834e-05
-9.79602e-05
1.17278e-05
-2.43353e-05
-6.52871e-05
-4.57339e-05
9.77498e-05
-2.84512e-05
2.46854e-05
2.8971e-05
-3.39511e-05
9.1926e-05
-5.06382e-05
-3.13994e-05
4.17582e-07
2.26256e-05
5.23945e-05
-4.63505e-05
3.01935e-06
-7.25876e-05
3.62423e-05
4.53796e-05
5.10275e-05
4.96127e-05
1.14618e-05
6.31495e-06
1.38576e-05
1.41445e-06
1.35624e-05
-5.94301e-05
-5.26092e-05
-3.14452e-05
3.68988e-05
-1.13063e-06
4.39375e-06
1.65977e-05
1.01097e-05
-4.56737e-05
-5.67067e-05
-2.16058e-05
3.75393e-06
3.02109e-05
2.47179e-05
-3.70552e-05
-4.68161e-05
-8.03269e-05
-3.89204e-05
8.46452e-05
4.35205e-05
1.98977e-05
-8.17515e-06
-6.95733e-06
-5.38761e-05
3.58442e-05
-6.18508e-05
7.90427e-05
-1.59482e-05
-3.99168e-05
-6.26175e-05
3.51219e-05
5.15336e-05
1.97056e-06
-3.47092e-06
-9.94944e-06
5.45722e-05
-4.3594e-05
-3.20034e-05
3.58511e-05
-2.33701e-05
-7.19377e-06
3.16269e-05
-2.36784e-05
4.7908e-05
6.11597e-05
-1.50182e-05
5.83357e-05
-1.60111e-05
-5.55506e-05
-4.11181e-05
3.92952e-05
8.73664e-05
-9.01881e-06
2.39068e-05
5.31233e-05
-2.11783e-06
3.75919e-05
-6.11141e-05
-5.3782e-05
4.75651e-05
-2.9743e-05
-7.41596e-05
-1.30143e-05
3.82925e-06
-4.95904e-05
-1.00631e-05
1.48059e-05
3.36766e-06
-4.77559e-05
-3.26616e-05
4.77978e-06
4.4096e-05
4.04308e-05
-4.65773e-05
-4.65794e-05
9.95374e-06
6.58102e-05
1.77753e-05
-1.76015e-05
-0.000102062
4.74704e-05
-2.01666e-05
-7.77585e-06
-8.79902e-06
4.50332e-05
-5.59189e-06
-5.70056e-05
-1.93111e-05
-3.39666e-05
4.75906e-05
2.16508e-05
-2.22095e-05
-2.4779e-05
-2.54152e-05
-5.8905e-06
-1.15662e-05
-4.13181e-05
-4.0236e-05
1.20618e-06
-4.48262e-05
2.04251e-05
3.3807e-06
-2.82914e-05
3.01645e-05
9.34838e-06
-6.713e-05
-4.0574e-05
7.0933e-05
-3.3956e-05
-2.67515e-05
2.17735e-05
1.56363e-05
1.44395e-05
-8.90181e-06
-1.19933e-05
1.44327e-05
8.70283e-05
-9.70205e-07
1.2423e-05
-5.59279e-05
-1.92773e-05
3.90809e-05
3.06964e-06
-4.05498e-05
7.56595e-06
6.72851e-05
3.94988e-05
-7.47547e-05
-3.48645e-05
2.46887e-05
-5.16152e-05
3.76743e-06
-4.08548e-05
-1.83196e-05
8.32834e-05
-3.53504e-05
-3.56364e-05
-9.10182e-06
-2.37039e-05
-7.61584e-05
-4.31732e-05
-3.44523e-05
3.03321e-05
-5.93207e-05
-4.4342e-05
-1.38483e-05
2.80144e-05
4.43445e-05
7.11204e-06
-4.18979e-07
-3.3796e-05
5.63178e-05
4.62115e-05
-7.51625e-05
0.000106831
-4.85464e-05
-1.38164e-05
-8.41916e-07
-1.47609e-05
-6.57005e-05