# vtk DataFile Version 1.0
Net Charge Density
ASCII
DATASET STRUCTURED_POINTS
DIMENSIONS 256 128 1
ORIGIN 0 0 0
SPACING 0.15625 0.15625 1
POINT_DATA 32768
SCALARS rhonet float
LOOKUP_TABLE default
-3.89619e-06
-9.51275e-05
0.000144792
9.63222e-05
3.56846e-05
0.000120451
-0.000118445
9.18584e-05
0.000154216
2.28994e-05
-3.75607e-05
0.000108726
0.00010382
7.94455e-05
0.000109346
4.99607e-05
8.77434e-05
0.000140236
4.05879e-05
-6.79104e-05
-6.40715e-06
0.000141859
0.000144767
4.77822e-05
3.72683e-05
2.07431e-05
7.74218e-05
9.05893e-05
-1.35218e-05
-7.27428e-05
5.23025e-05
3.97237e-05
4.36691e-05
6.90083e-05
1.24415e-05
0.000171713
1.68071e-05
7.28727e-05
7.73582e-05
-5.53112e-06
2.29318e-05
6.83207e-06
0.000136403
9.39816e-05
2.09387e-05
1.86829e-05
-3.16132e-05
6.95544e-05
0.000116214
7.88723e-05
-1.20078e-05
2.49785e-05
8.34424e-05
0.000148995
3.55957e-05
1.75047e-05
0.000151011
-5.17473e-05
5.67804e-06
7.16958e-05
5.02795e-05
6.06016e-05
7.16804e-06
8.01804e-05
8.22488e-05
-8.0383e-05
4.41819e-05
0.000136175
4.09957e-05
4.82836e-05
7.92338e-05
3.67115e-05
-2.69159e-05
4.96675e-05
-1.15018e-07
5.11557e-05
4.2086e-05
-3.83079e-05
9.21621e-05
0.000106615
8.71837e-05
2.54081e-05
7.49618e-05
0.000101106
4.54683e-05
-4.48001e-06
-1.66914e-05
6.70487e-05
0.000119669
-2.34871e-05
9.00027e-05
-1.47952e-05
-3.90528e-05
-6.21425e-06
-8.99176e-05
5.22718e-05
0.000157961
2.40976e-05
9.16885e-05
-2.49444e-05
0.000157723
9.09186e-05
-3.16929e-06
9.47256e-05
3.90384e-05
0.000130971
-2.57976e-07
-6.85493e-05
2.66277e-06
7.39999e-05
0.00013342
5.79274e-05
2.02988e-05
3.31163e-05
8.04213e-05
4.36596e-05
1.2266e-05
7.49691e-05
5.09608e-05
4.32272e-05
-3.98803e-05
-3.45638e-05
4.04438e-05
2.44901e-05
0.000115721
6.60872e-05
1.82551e-05
8.13098e-05
1.99642e-05
-1.88102e-05
0.000119796
9.26158e-05
-2.2446e-06
3.77491e-05
2.03246e-05
6.79679e-06
4.46088e-05
-3.19158e-05
4.6896e-05
-1.15028e-05
-4.98412e-05
2.32956e-05
2.09624e-05
0.000160761
9.88228e-05
2.06346e-06
0.000137836
1.15244e-05
-3.11239e-05
0.000132418
1.78271e-05
2.91321e-05
0.000108428
-8.34535e-06
3.45041e-05
4.32302e-05
5.74638e-06
3.4271e-05
-5.27606e-06
1.75424e-05
7.67779e-05
2.50086e-05
0.00011271
-2.20693e-05
3.25856e-05
2.55227e-05
5.84623e-05
-6.12726e-05
0.000105448
0.000137295
2.50292e-05
4.32238e-05
7.45823e-05
0.000111579
-2.02681e-05
-8.13336e-06
8.72926e-05
-8.23225e-05
1.15578e-05
3.31808e-05
8.87691e-05
-7.06e-05
-3.18111e-05
5.65359e-06
1.04993e-05
7.98535e-05
4.14198e-05
7.20926e-05
0.000102554
7.46853e-05
2.48841e-05
0.000198125
8.16125e-05
-6.56991e-05
6.24203e-05
0.000201229
4.75226e-05
8.32758e-05
7.86668e-05
-1.6309e-05
5.95988e-05
0.00014917
4.39011e-05
3.83356e-05
-1.00757e-05
6.97712e-05
-5.98885e-05
5.34235e-05
6.86802e-05
8.5791e-05
6.81027e-05
0.000137439
0.000106097
-2.40523e-05
0.000111081
-0.000131281
0.000102691
9.90946e-05
-5.28727e-05
-3.79211e-05
8.69742e-05
0.000114877
0.000176992
3.40525e-05
7.95297e-05
5.6745e-05
-3.69137e-05
-1.51403e-05
8.69036e-05
6.86066e-05
6.22822e-06
4.1654e-05
2.36377e-05
2.60698e-05
0.000121307
-3.55707e-05
-2.05766e-05
2.75013e-05
5.9451e-05
8.97993e-06
1.84994e-05
8.66939e-05
-5.82663e-05
-3.07104e-07
2.65901e-05
-1.44099e-05
-2.21962e-05
-3.95465e-05
0.000128655
-4.29631e-06
2.10481e-05
-3.85131e-05
0.000102293
2.14381e-05
2.40528e-05
4.18616e-05
-0.000104899
2.47047e-05
-6.30285e-05
-2.51195e-05
-2.38866e-05
5.1226e-05
-2.60451e-05
-7.57639e-05
4.98929e-05
-6.6046e-05
-4.29e-05
2.33415e-05
-5.9909e-05
-8.0273e-05
3.00223e-06
-4.24256e-05
4.66243e-06
1.08914e-05
-2.1575e-05
-4.06057e-06
-5.82074e-05
-6.74939e-05
-0.000106139
-1.792e-05
-2.0046e-05
-5.72718e-05
-2.52768e-05
7.73044e-06
-3.07406e-05
-8.53873e-05
-3.53886e-05
-8.36083e-06
2.74418e-05
-7.95684e-05
-6.67484e-05
2.31332e-05
-0.000103178
-3.37883e-05
1.98339e-05
-8.20329e-05
-5.15867e-05
-4.38413e-05
8.67306e-06
3.56e-05
-2.47126e-05
4.87431e-06
-0.000112384
-3.1517e-05
3.88795e-05
-3.39414e-05
-6.56132e-05
-4.11924e-05
-3.1738e-05
2.98232e-05
-2.85319e-05
-3.54561e-05
-2.34862e-05
-0.00011611
1.48102e-05
-3.37932e-05
4.56299e-05
-5.12688e-05
-5.72847e-05
-3.73457e-05
-3.01473e-05
-6.05667e-05
-1.00289e-05
-7.96339e-05
-0.000109192
1.21039e-05
-4.39815e-05
9.01776e-06
-1.84353e-05
1.72416e-05
-5.13537e-05
-1.04334e-05
4.76097e-05
-2.54943e-05
5.74087e-05
2.1595e-07
-3.24124e-05
-5.04443e-05
-8.22565e-05
2.84829e-05
2.44661e-05
-6.16941e-05
-0.000158637
-4.16987e-05
-6.51926e-08
-1.69133e-05
8.77411e-06
5.33127e-05
3.15567e-06
-1.07945e-05
2.47146e-05
-5.96582e-06
3.4323e-05
-2.73112e-05
-6.84732e-06
-1.89513e-06
-4.36445e-05
-0.000106618
-3.96519e-05
-2.96771e-05
-3.556e-05
1.64226e-05
-5.91244e-05
-4.27188e-05
-1.06788e-06
-5.99993e-06
5.43521e-05
-3.54238e-05
-7.13798e-05
-7.13187e-05
4.01698e-05
1.15475e-05
-5.23521e-05
-1.11542e-05
9.64501e-06
3.1899e-05
-8.5775e-05
1.39622e-05
-6.1379e-05
-7.74185e-06
-3.48631e-05
-1.67098e-05
-4.55657e-05
-6.96024e-05
1.70253e-05
-4.88102e-05
-2.07971e-05
1.59813e-05
-1.05534e-05
-2.35448e-05
-1.24408e-05
-3.31043e-05
-4.60127e-05
-1.33578e-05
-4.22455e-05
-8.32276e-06
-5.9447e-05
-7.82582e-05
8.69716e-06
-2.01957e-06
-8.3825e-05
1.05491e-05
-3.22354e-05
-4.36767e-05
-0.000117681
-8.72533e-06
-3.99583e-05
-3.83077e-05
-7.16747e-05
9.37027e-06
3.0005e-05
-1.70406e-05
-2.39993e-05
-1.85566e-06
-5.11226e-05
-2.02563e-05
-8.13487e-05
-6.4095e-05
3.62427e-05
-8.02713e-05
-7.56327e-06
2.37463e-05
2.21168e-05
-5.27813e-05
-2.42493e-06
3.60704e-05
-9.46559e-05
1.02374e-05
-2.21478e-05
3.97033e-05
-4.13508e-05
-2.55479e-05
-5.70074e-06
3.04061e-05
-6.90698e-05
-4.77678e-05
3.67508e-05
-4.79701e-06
2.05892e-06
-4.86568e-05
-0.000107548
-6.60245e-05
-2.66002e-05
-2.24794e-05
-9.33022e-06
-1.88575e-05
-0.000101449
6.32228e-06
3.69588e-05
4.61028e-06
-1.08489e-05
-2.36548e-05
-8.50842e-05
-3.90908e-05
4.811e-05
-6.97735e-06
-7.51887e-05
-6.46276e-05
-4.37899e-05
3.07556e-05
-5.53509e-05
1.83168e-06
-5.12167e-05
9.71674e-05
1.17973e-05
-4.14061e-05
-5.22411e-05
-4.83994e-05
-4.73998e-05
3.21254e-05
-3.50829e-05
-7.29866e-05
1.6978e-06
-2.53875e-05
-1.98884e-05
4.50586e-06
-1.73198e-05
7.05677e-05
5.70893e-05
-6.70668e-05
-3.48982e-05
-2.73383e-05
-7.02045e-05
-2.0606e-05
2.42672e-05
8.5886e-05
-8.70341e-05
6.93474e-06
-4.34532e-05
-3.627e-05
6.90325e-05
3.75877e-05
-6.27585e-05
-4.99119e-06
2.55413e-05
-5.1121e-05
2.26249e-05
-1.34833e-05
-4.80213e-05
-1.98241e-05
3.05485e-06
3.73244e-05
3.42685e-05
-1.23484e-05
-2.31678e-05
-0.000132199
-1.6659e-07
-7.60669e-06
5.12575e-05
-7.35268e-06
-7.3632e-05
5.01703e-06
-3.30424e-05
-1.99105e-06
5.00252e-05
-7.79761e-06
-2.33891e-05
-8.48074e-06
1.05461e-06
-1.92296e-05
7.13235e-05
-5.15233e-05
7.82264e-06
3.11624e-05
6.53437e-05
-4.679e-05
-2.90639e-05
-1.149e-05
-2.49573e-05
-9.34283e-05
-2.04819e-05
3.51593e-05
4.88631e-05
3.64082e-05
-1.64523e-05
3.777e-05
6.14581e-05
-4.75242e-05
4.48452e-05
4.40086e-05
9.82312e-06
-5.10865e-05
1.23072e-05
2.34435e-05
7.04301e-05
4.96688e-05
-3.57148e-05
2.25287e-05
5.27361e-06
-2.5116e-05
4.80087e-05
3.40394e-05
2.11624e-05
-2.89197e-05
-7.34262e-05
2.16749e-05
3.48727e-05
1.4212e-06
-4.63356e-05
1.81724e-06
-1.65713e-05
5.22442e-05
1.92714e-05
-4.25103e-05
-9.05945e-05
6.88445e-06
2.94283e-05
9.4329e-06
3.90759e-05
-4.01766e-05
2.79774e-05
-3.3071e-05
9.02759e-05
1.87057e-05
2.19357e-05
-2.38942e-05
3.89216e-05
7.95065e-05
-1.42993e-06
-1.07868e-05
-4.31227e-05
-5.63422e-05
3.65558e-05
5.69131e-06
-2.9766e-05
3.18498e-05
-3.75108e-05
-1.97686e-05
6.36959e-05
5.06414e-05
-4.80587e-05
-4.18772e-05
-9.31276e-06
-2.63557e-05
-1.33658e-05
5.09447e-05
7.41072e-05
-1.38804e-05
-5.52125e-05
-6.02386e-05
2.25471e-05
4.01654e-05
-3.56468e-05
4.60858e-05
6.0403e-05
1.00425e-05
-2.72851e-05
-6.84022e-05
1.03853e-05
-3.90664e-05
-6.67317e-05
1.8933e-05
-3.86648e-05
-7.26084e-05
1.55342e-05
3.44657e-05
-9.18179e-06
-2.5239e-05
3.49993e-05
6.71941e-05
-7.81426e-06
-2.34847e-05
1.90872e-05
-3.45567e-05
-3.24682e-06
3.17625e-05
-4.33621e-05
-4.44568e-05
-1.2916e-05
6.19072e-05
-1.54717e-05
-1.92425e-05
-9.34e-07
1.07796e-05
-2.67865e-05
6.43285e-05
6.27944e-07
3.16114e-05
-3.45438e-05
-2.02106e-05
3.29813e-05
-8.92999e-06
-5.33776e-05
-6.58387e-05
-1.97737e-05
2.38349e-06
3.65472e-05
8.3677e-06
-1.87778e-06
1.48284e-05
-2.75732e-05
4.24779e-05
2.79528e-05
9.69113e-05
6.6583e-05
1.94262e-05
1.45666e-05
-1.36637e-05
5.90172e-05
5.77689e-05
-3.53305e-05
8.65558e-05
-1.88485e-05
-2.10225e-05
-5.39365e-05
1.12343e-05
-1.2298e-05
7.03165e-05
-1.07869e-05
6.14859e-06
5.77931e-05
3.47517e-05
-3.56393e-05
-5.85627e-06
4.38269e-05
2.99958e-05
1.48882e-05
3.0942e-06
-6.29969e-05
1.44137e-05
-9.34469e-05
4.10874e-05
-3.34159e-05
-7.29715e-05
6.78701e-06
-4.31377e-05
3.26064e-05
-5.40693e-05
-3.51893e-05
-7.38061e-06
-3.46783e-05
7.78178e-06
5.28587e-05
1.66985e-05
-1.61515e-06
7.61896e-05
-2.89688e-06
5.27897e-05
3.30998e-05
2.69052e-05
3.20118e-05
-4.14016e-05
-7.91216e-05
6.70378e-06
-3.7106e-05
3.38536e-07
3.1288e-05
2.55893e-05
4.6243e-05
-7.34441e-06
3.85571e-05
-1.82483e-05
8.60398e-05
-3.51761e-05
-2.42109e-05
-2.44784e-05
3.96881e-05
3.96363e-05
-5.59632e-06
-1.59821e-05
5.26491e-05
-3.12828e-05
-9.51311e-06
1.32088e-05
3.03073e-05
4.01437e-05
-6.21302e-05
6.55791e-06
-4.02803e-05
7.68164e-05
-2.30571e-05
2.42726e-06
-2.36239e-05
-7.65675e-06
1.05589e-06
-7.58461e-05
1.8905e-05
4.24921e-05
2.73332e-06
-4.68806e-05
-0.000111356
2.32973e-05
1.92819e-05
1.66986e-06
4.11418e-05
-1.26257e-05
3.11469e-06
-2.15394e-05
-7.41893e-05
3.57796e-05
1.81664e-05
-4.43214e-05
1.38057e-05
2.49416e-05
-1.4007e-05
-5.45264e-05
-1.59671e-05
4.84833e-05
-4.49934e-06
-0.000139603
5.79744e-05
3.08065e-05
0.000100899
-3.72751e-05
3.82718e-05
1.96726e-05
-2.19458e-05
-3.16992e-05
-3.15026e-05
5.7979e-05
8.84752e-05
-9.06747e-06
-5.9989e-05
9.21823e-06
8.46398e-06
-1.86265e-08
-2.07854e-05
-3.90373e-05
0.000130275
-3.43212e-05
-4.70515e-05
5.37116e-05
-2.79676e-06
2.82284e-06
-3.7919e-05
-6.05409e-05
4.75425e-05
4.84363e-05
-1.75375e-05
3.74631e-05
-5.19103e-05
4.18173e-05
3.39495e-05
-6.99728e-05
2.73659e-05
3.88061e-05
1.67809e-05
-5.26786e-05
6.28694e-05
-2.19616e-05
-4.31014e-05
-7.40401e-06
-2.66794e-05
4.25472e-05
3.64962e-06
2.7573e-05
-4.73878e-05
-6.43707e-06
3.03092e-05
-2.263e-05
-8.19345e-05
-4.95816e-05
1.36236e-05
3.36373e-05
4.53527e-05
-3.78168e-05
6.72047e-05
-2.02056e-05
-6.23041e-05
4.74695e-05
4.62759e-05
1.24049e-05
3.82876e-05
2.15026e-05
5.87143e-05
-6.50005e-05
-4.25663e-05
-1.34126e-05
4.39063e-05
4.78704e-05
-2.23205e-05
-6.05173e-05
1.98302e-06
-2.43727e-06
-3.00116e-05
1.48916e-05
2.92045e-05
7.28869e-05
7.06636e-05
-3.5825e-05
-0.000140627
2.58458e-05
1.20373e-06
-2.88255e-05
-4.69701e-05
5.72427e-05
3.12587e-05
1.75572e-05
-0.000107817
-1.58474e-05
1.13326e-05
3.99516e-05
3.28136e-05
-4.30102e-05
3.20361e-05
3.74884e-05
-3.91933e-05
2.83315e-05
3.7194e-05
-1.3714e-05
3.56366e-05
-5.44164e-05
8.30446e-05
3.03241e-05
-1.94272e-05
-2.67291e-05
6.84281e-05
4.12175e-05
-2.91595e-05
3.35348e-05
3.92138e-05
3.68368e-05
-3.48371e-05
-2.81514e-05
1.41668e-05
3.5294e-05
-7.15663e-05
-2.16158e-05
4.60054e-05
3.64991e-05
2.31861e-05
-3.12361e-05
-7.13485e-05
2.25478e-05
-3.52731e-05
7.69855e-05
-4.16434e-05
-1.37859e-05
7.45143e-05
-5.40672e-05
4.00422e-06
-1.77847e-05
-5.58048e-05
2.01226e-05
5.96012e-06
5.05823e-05
6.31162e-05
-6.58258e-05
8.14191e-05
-4.32238e-05
-2.44331e-05
2.67201e-05
4.39421e-06
9.56794e-06
7.65512e-06
4.39084e-06
-4.22162e-05
2.17027e-05
1.01277e-05
-1.56354e-05
-7.88145e-05
-2.79718e-05
-7.3316e-06
2.62831e-05
6.2281e-06
2.384e-05
-8.04069e-06
5.2616e-05
3.00958e-05
-3.07955e-05
-8.68589e-05
1.14745e-05
3.87336e-05
1.1161e-05
-2.85621e-05
-9.1251e-06
-2.48128e-06
2.21184e-05
-3.22994e-06
2.53445e-05
2.25463e-05
3.20964e-05
-2.08737e-05
-3.06265e-06
6.05558e-06
-3.41411e-06
3.49665e-05
-2.44866e-05
5.34739e-05
1.96628e-05
1.27887e-05
-1.15689e-05
2.92526e-05
2.87103e-06
3.3959e-05
-1.87164e-05
-2.88663e-06
-6.90413e-05
2.46685e-05
-5.03915e-06
-1.26837e-05
2.05976e-05
-2.63397e-05
-2.66184e-06
-3.02468e-05
-7.38932e-05
-1.16542e-05
0.000124286
-9.6718e-05
2.30569e-05
4.0888e-05
1.1208e-05
1.89695e-05
2.2975e-05
-6.50403e-05
-1.85563e-05
-3.58942e-05
9.88762e-06
-2.25084e-05
-0.000114619
5.0644e-05
-0.000120174
-5.2155e-05
0.000129995
-2.85544e-05
-3.29319e-05
1.3981e-05
-3.08792e-06
-4.58409e-06
-6.87176e-05
5.01517e-07
2.54061e-05
-3.06811e-05
-4.83696e-05
-2.09836e-05
3.77462e-05
3.99073e-05
1.09905e-05
-3.37757e-05
2.43067e-05
4.91922e-05
4.58605e-05
-7.13922e-05
-6.57424e-05
-4.48682e-05
5.14663e-05
2.45089e-06
-1.54646e-06
-6.96713e-05
3.42494e-07
-1.04239e-05
6.89388e-06
-2.29042e-05
-2.35485e-06
-3.06218e-05
3.27413e-05
-3.2268e-06
-1.03378e-05
-2.52568e-05
2.8462e-05
9.52232e-05
-3.02618e-05
3.21714e-05
4.43814e-05
-4.54087e-05
-0.000101101
-3.30769e-05
0.00011101
6.25449e-05
-5.28275e-05
-0.000107186
-1.18129e-05
6.8567e-05
3.46117e-05
-5.4047e-05
-5.21373e-05
4.75176e-05
-4.06373e-05
-0.000119436
6.12031e-05
-1.81564e-05
-3.11726e-05
0.000105494
-4.54732e-05
-9.29439e-05
-5.38455e-05
9.50566e-06
-5.54988e-05
1.67226e-05
4.28152e-06
-7.23701e-05
6.52473e-06
4.59251e-05
6.77747e-06
-2.06637e-06
5.32221e-05
2.83376e-05
-3.75985e-05
-4.85514e-05
0.000104193
-1.62803e-05
-5.72717e-06
-2.96999e-05
-2.67266e-06
-4.5812e-05
8.228e-06
-1.31112e-05
-4.38886e-05
-3.36706e-05
-5.49544e-05
4.80603e-05
-3.43903e-05
5.50939e-05
-3.26771e-05
-2.49941e-05
-9.60915e-06
3.26962e-05
-4.34386e-05
8.21744e-05
3.99048e-06
1.01076e-05
-2.64165e-05
-1.68453e-06
5.18316e-05
-5.05238e-05
7.6534e-05
-2.69972e-05
-2.84476e-05
5.25278e-06
1.91289e-05
5.75273e-05
-1.55071e-05
1.4148e-05
1.54793e-05
9.67543e-05
-2.60591e-05
2.79734e-06
-6.8649e-05
-4.36464e-06
5.35545e-06
-6.22938e-07
-1.12271e-05
2.76116e-05
-7.06455e-05
2.38859e-05
3.64641e-05
-5.86128e-06
-1.47327e-05
5.85361e-05
-1.46369e-06
5.06174e-07
-8.36339e-06
-6.6882e-05
-7.4585e-06
-5.66777e-05
5.49137e-05
-1.5568e-05
-6.51169e-05
1.93971e-05
-2.50088e-05
1.49549e-05
4.44496e-05
-8.87807e-06
-5.64915e-05
-7.07046e-05
-8.34104e-06
-2.96296e-05
-2.15229e-06
-1.83213e-05
-1.89338e-06
-0.000102778
8.74838e-06
3.2482e-05
3.07967e-05
-0.000103662
-3.6156e-05
2.02421e-05
8.39119e-05
4.75266e-06
-1.31454e-05
3.1969e-05
7.14674e-07
-3.71365e-05
-7.51375e-05
-6.92117e-05
-2.21236e-06
-7.09703e-05
1.36695e-06
-4.3752e-05
5.21007e-05
-3.20328e-05
-2.11227e-05
9.38191e-06
-1.06101e-06
4.85079e-06
-2.59298e-05
5.72975e-05
-2.03841e-05
4.02203e-05
1.71226e-05
-4.36109e-05
4.79107e-06
-4.09905e-05
-3.4913e-07
2.3094e-05
-3.31622e-05
1.34481e-05
1.23588e-05
-2.61043e-05
-4.6381e-05
1.17681e-05
-4.402e-05
0.000100773
4.16173e-05
5.95761e-05
5.72705e-06
3.6353e-06
3.72174e-05
-2.83866e-05
-2.65328e-05
-3.87029e-05
-3.32444e-05
-2.94531e-06
-4.83426e-06
-7.42385e-05
-9.2118e-05
-4.12925e-05
9.36037e-05
1.79686e-05
2.46145e-05
5.079e-05
-3.90919e-05
-4.86939e-05
-6.07771e-05
2.91872e-05
-7.01526e-05
2.39769e-05
5.71002e-05
1.43808e-05
-8.5445e-05
6.48923e-05
5.64102e-06
1.15011e-05
-0.000120717
5.33741e-05
7.3608e-05
5.39154e-06
1.38731e-05
1.18413e-05
-9.6513e-06
3.66956e-05
-3.03435e-05
4.71818e-05
6.17246e-05
-4.68083e-06
-4.04327e-05
-2.98398e-05
4.8338e-06
-1.19221e-06
4.36949e-05
-1.84937e-06
-1.13769e-05
-1.70609e-05
7.8248e-05
-4.58385e-06
1.7914e-05
-3.62855e-05
-7.78637e-05
7.38347e-05
-9.19307e-05
-5.20796e-06
2.09288e-05
2.30619e-06
7.05892e-05
3.8382e-05
7.42113e-06
5.50145e-05
-1.01445e-05
4.60943e-05
-1.68377e-05
-5.8875e-05
-4.91893e-05
5.14215e-05
5.45885e-05
-1.98532e-05
5.81015e-05
3.02003e-05
1.38807e-05
2.24962e-05
6.25571e-05
6.90145e-06
-8.80085e-05
-1.34252e-05
-5.00749e-06
4.87005e-05
5.9925e-05
6.30915e-05
1.42667e-06
2.1443e-05
-2.66382e-05
-9.90438e-06
-6.22047e-05
-1.60283e-05
3.25949e-05
-3.8536e-05
-1.90414e-05
5.31537e-05
-2.28162e-05
1.54097e-05
-4.23553e-05
-5.64731e-07
-5.11478e-05
-1.07908e-05
-0.000114607
2.06345e-05
1.91705e-05
7.28543e-05
2.73276e-05
-4.94907e-05
5.05781e-05
5.2787e-05
6.41993e-05
-7.99028e-06
4.43973e-05
-4.86516e-05
-2.58865e-05
-3.12887e-05
9.76645e-05
-4.46029e-05
-4.87093e-05
2.70449e-05
-5.04586e-05
1.36554e-05
-9.01835e-05
-0.000131355
6.04797e-05
5.67491e-05
-1.70094e-05
2.47732e-05
-9.10857e-06
5.16704e-05
-8.06588e-05
3.82913e-05
3.78344e-05
1.59069e-05
-7.9762e-06
-6.65465e-06
3.57421e-05
3.13767e-05
-9.32614e-05
-4.72952e-05
-9.38076e-05
-4.97695e-05
6.84747e-05
-3.54392e-05
9.14489e-06
-3.66223e-05
3.87212e-05
1.69345e-05
4.47609e-05
-5.40494e-05
2.94941e-05
6.61316e-05
1.22413e-05
-6.64283e-05
1.13377e-06
1.48166e-05
-1.36938e-05
6.0895e-05
-9.08738e-07
7.89306e-05
9.09693e-06
5.26161e-05
-9.66367e-05
3.41132e-05
6.60541e-06
-1.27824e-05
-4.43459e-05
-2.06707e-05
3.15055e-06
-9.30391e-07
-6.30612e-05
-0.000100799
-4.15873e-05
-9.15085e-05
-4.81866e-05
5.62919e-05
-1.52459e-05
-5.22907e-05
-2.41202e-05
-1.08292e-05
-4.577e-05
-4.23098e-05
1.19054e-05
2.83608e-05
-1.41365e-05
-5.28251e-05
-6.13483e-05
1.77319e-05
1.07333e-05
-2.08276e-05
5.9631e-05
1.79047e-06
2.51201e-05
-2.3635e-05
5.88675e-05
3.18962e-05
4.76107e-05
-7.31896e-05
7.22465e-05
-0.000100921
-6.24033e-06
6.49313e-05
8.48947e-06
3.2307e-05
-3.30689e-06
-4.32202e-05
2.37837e-06
1.99965e-05
-1.27287e-05
9.59355e-06
3.61399e-05
2.75431e-05
6.92134e-05
-2.72412e-06
-6.32239e-05
-6.14556e-06
-7.61088e-06
-1.0211e-05
4.45035e-05
5.20144e-06
2.67311e-05
-6.62962e-06
-4.79829e-06
-2.94804e-05
1.43546e-05
5.68992e-06
6.79197e-05
9.01206e-06
3.43915e-05
1.84246e-05
1.29044e-05
-4.46521e-05
3.4593e-05
3.36542e-05
1.93808e-06
-1.88093e-05
4.46872e-05
-5.23892e-05
6.75363e-05
7.74651e-05
6.37234e-06
8.13848e-05
-3.18103e-05
2.20672e-05
-1.7356e-05
-2.87802e-05
-6.8658e-05
1.19237e-05
2.47908e-05
1.23701e-05
-3.48673e-05
2.16779e-05
-2.20753e-05
-3.52494e-06
1.23344e-05
1.70933e-06
2.97124e-05
-6.88568e-05
-1.33736e-05
9.18962e-05
-3.43514e-05
1.47283e-05
-1.23635e-05
4.94567e-05
2.42071e-05
-4.44683e-05
5.05934e-05
0.000106778
9.66931e-05
6.52508e-05
8.89413e-07
-7.20681e-06
-1.14564e-05
6.66901e-05
-5.44789e-06
4.01794e-05
-2.33978e-05
4.17558e-05
-3.41277e-05
-2.13976e-05
6.28072e-06
-2.62642e-05
3.58213e-05
-8.93135e-05
4.69473e-05
-3.57551e-05
3.3025e-05
2.34639e-05
-9.97117e-05
2.21336e-05
3.57016e-05
-1.87468e-05
2.1326e-05
-6.78236e-05
2.71619e-05
-5.16977e-05
5.68139e-05
4.88436e-05
-1.74803e-05
3.80407e-05
4.54169e-05
1.1788e-05
-8.37957e-06
2.07496e-05
-2.05645e-05
5.28254e-05
-7.57059e-05
-4.26268e-05
-7.67293e-06
2.04988e-05
-1.54354e-05
-3.12333e-05
1.17398e-05
6.21646e-05
4.88075e-05
4.33601e-06
-0.000127571
-5.02241e-05
-6.86678e-05
-6.60999e-05
3.09135e-05
7.61505e-05
-7.01359e-05
-7.03032e-06
9.28517e-06
4.82403e-05
3.83996e-06
8.47317e-06
-6.75762e-05
-1.85829e-05
1.21738e-05
-8.66805e-06
-3.19518e-05
-1.42829e-05
3.18419e-06
7.33021e-06
1.82413e-05
2.56514e-05
-6.7884e-05
-4.7147e-06
3.4929e-05
-5.0533e-05
1.07933e-05
-1.50148e-05
-1.6305e-05
-2.95389e-05
9.53889e-05
2.63909e-05
-1.76689e-05
-2.15014e-05
-1.27992e-05
8.03312e-06
-1.35808e-05
2.63911e-05
-7.18527e-06
-1.90849e-05
2.17285e-05
5.39323e-05
-9.03431e-05
5.79039e-05
-1.44778e-05
-1.46055e-05
-3.83228e-05
-4.54385e-05
2.61611e-05
5.74819e-05
2.07158e-05
1.80583e-05
2.61939e-05
-7.22182e-06
-2.65969e-05
2.38708e-05
-3.81792e-05
-3.29991e-05
2.86612e-05
4.19572e-06
5.3414e-05
-1.29022e-05
-4.54602e-06
9.10497e-05
1.63321e-05
1.69142e-05
-4.63271e-05
3.55744e-05
-3.91719e-05
2.29462e-05
1.72231e-05
3.08617e-06
6.80581e-05
6.7281e-05
-1.70236e-05
-7.54686e-06
4.55868e-05
-1.23878e-05
-6.61239e-06
0.000122597
3.26282e-05
1.82122e-05
2.49492e-05
-5.22537e-05
-2.22388e-05
-5.70165e-05
1.30537e-06
7.6904e-06
2.41785e-05
1.07716e-05
-5.20683e-05
1.76704e-05
6.44929e-05
-6.1188e-05
5.44069e-05
-4.49325e-05
-7.05204e-05
6.2302e-06
3.27921e-05
4.70878e-05
1.3269e-06
1.32956e-05
-7.78598e-05
-2.81829e-05
-6.89295e-06
0.000112601
3.68478e-05
-3.34256e-05
4.85632e-05
3.18352e-05
1.14891e-05
6.94901e-05
0.00013327
-7.38587e-05
-4.20368e-05
-1.68965e-05
2.04109e-05
8.13243e-06
-1.95549e-05
3.4755e-05
5.05913e-05
-6.30396e-05
-4.22687e-05
1.79628e-05
5.70348e-05
-6.66827e-07
2.83979e-05
-3.47795e-05
-8.23163e-05
-3.16934e-05
-5.51024e-05
-1.69484e-05
6.43996e-05
-5.57767e-05
5.25212e-05
-0.00011234
-7.10647e-05
-1.52235e-05
-1.60268e-05
-3.593e-05
5.28325e-05
4.40273e-05
-4.75498e-06
-6.0578e-05
-2.03253e-05
1.72121e-05
2.40912e-05
-2.15005e-05
-3.80278e-05
1.84206e-05
-5.22969e-05
-1.4804e-05
-9.04264e-05
-1.86134e-05
-1.40982e-05
0.000121308
-2.547e-05
5.25209e-05
3.79474e-05
3.1194e-05
-3.8531e-05
-5.10202e-06
-4.49659e-05
2.62945e-05
1.12429e-05
-1.86053e-05
1.74433e-05
-3.76219e-05
8.71101e-06
-3.17957e-05
7.14646e-05
-7.47018e-05
0.000101809
5.19643e-05
3.18054e-05
1.94153e-05
4.63658e-05
-3.00433e-06
1.62397e-05
7.9999e-05
3.67593e-06
-1.37988e-05
-5.21082e-05
-5.6218e-05
2.68223e-05
-3.78019e-05
-4.78236e-05
2.88631e-05
-2.68994e-05
-1.16548e-05
-5.02801e-05
3.10763e-05
-2.00594e-05
3.81093e-05
-8.71735e-05
-4.69045e-05
1.67188e-05
4.92434e-05
9.12813e-06
1.42609e-06
-6.69422e-05
-7.27302e-05
-1.43613e-05
-9.7442e-06
-1.56983e-05
2.67378e-05
-9.21222e-05
-5.88645e-05
-1.25876e-05
5.10605e-05
-8.9749e-05
7.86012e-05
1.30895e-05
1.51681e-05
-0.000114672
-4.19712e-05
1.06479e-05
8.84153e-05
-6.75325e-06
-6.93044e-06
1.08087e-05
-9.15197e-05
-1.49586e-05
1.07789e-05
5.18089e-05
-3.28288e-05
4.25933e-05
9.43081e-06
7.85105e-07
4.03612e-05
-3.83542e-06
2.66726e-05
-2.21872e-05
6.10948e-07
2.16428e-06
1.83089e-05
-2.01634e-05
-7.52349e-05
-8.20158e-05
-4.08831e-05
3.06884e-05
3.11449e-05
-1.76036e-05
-1.14889e-05
3.87499e-05
9.27446e-06
1.1754e-05
-4.44872e-05
-5.27482e-05
-4.26526e-05
9.60721e-05
-3.91066e-05
-6.17566e-05
-4.51251e-05
4.72006e-06
-4.15782e-05
-1.74774e-06
2.57661e-05
4.81141e-05
-3.50765e-05
2.89147e-05
3.42637e-05
2.19493e-05
-2.03149e-05
-2.84291e-05
2.95845e-05
6.23253e-05
1.81494e-05
-1.77091e-05
-4.22896e-05
-3.5183e-06
6.32224e-05
3.54694e-06
7.63219e-06
-5.29364e-06
1.01702e-05
2.7498e-05
2.9136e-05
-2.60761e-05
-5.974e-05
8.67879e-05
3.29311e-05
-1.45726e-05
-1.42367e-05
5.72902e-05
3.84287e-06
9.81885e-05
0.000121367
-2.85938e-05
2.49976e-05
7.87177e-06
-1.86716e-05
-1.70153e-05
-7.32378e-05
0.000112081
-1.25973e-05
-6.01783e-05
7.86281e-06
3.08844e-05
9.78319e-06
7.84046e-06
1.7136e-05
4.84288e-08
-2.67229e-05
-2.5681e-05
-4.13373e-05
-4.55832e-05
-1.76239e-05
-7.76537e-06
-4.82693e-05
7.13975e-05
1.64239e-05
3.01732e-05
-3.196e-05
1.39843e-05
-1.39406e-05
-1.55888e-05
4.47605e-06
-1.65855e-05
8.27655e-05
5.56018e-05
5.67257e-06
3.54119e-05
2.86242e-06
-1.63058e-05
2.07494e-05
9.6322e-06
-1.45009e-05
-4.88883e-05
-4.0748e-05
-9.69204e-06
4.12576e-05
-2.15797e-05
-3.41525e-05
5.64971e-05
-1.37317e-05
-5.04199e-05
3.84741e-05
-2.33625e-05
-1.19628e-06
-5.94464e-05
5.95266e-06
6.40071e-05
-7.39725e-05
-2.23714e-05
-4.28909e-06
-7.43156e-05
-1.58099e-05
5.60064e-05
-2.41016e-05
5.20147e-05
4.58728e-05
-3.16431e-05
0.000122277
2.89967e-05
1.20705e-05
-2.74092e-05
-3.44682e-05
-3.20203e-05
5.9846e-05
4.27903e-05
-2.54265e-05
-1.62865e-05
4.25267e-05
4.55985e-05
-7.0805e-05
-4.53843e-05
-1.75916e-05
6.00133e-05
3.70808e-05
4.36977e-05
-7.64534e-06
2.17556e-05
1.48432e-05
1.47813e-05
3.49523e-05
1.44987e-05
-7.1735e-05
5.90797e-05
3.9353e-05
-1.62122e-05
4.74527e-05
-1.84557e-05
-3.84232e-05
8.4609e-05
5.78986e-05
5.29935e-05
-2.82946e-05
-1.40257e-05
-3.38187e-06
6.56865e-05
1.70164e-05
1.81664e-05
-1.45184e-05
-3.22158e-05
8.30204e-06
5.70646e-05
3.72084e-05
6.8962e-05
3.92864e-05
3.07858e-05
-1.59348e-05
4.175e-05
8.47259e-06
-3.21824e-05
-1.07553e-05
-1.45923e-05
5.39316e-05
1.21889e-05
2.11237e-05
-2.64747e-05
1.12992e-05
-2.39079e-05
-1.44509e-05
1.09987e-05
-7.73522e-06
4.69049e-06
1.6859e-05
6.67057e-05
1.57991e-05
-0.000107579
-8.24991e-05
6.52333e-06
-5.85073e-05
5.17324e-05
1.84864e-05
1.66778e-05
-7.07681e-05
5.68503e-06
-1.86227e-05
-4.33432e-05
5.83278e-05
-4.15356e-05
-7.76745e-05
-1.33202e-05
-3.74751e-05
-1.09989e-06
5.06308e-05
3.4345e-05
5.214e-05
2.95319e-05
4.71441e-05
-2.02372e-05
0.000134813
5.5166e-05
-3.82707e-05
-1.12213e-05
0.000111733
1.1283e-06
-1.38336e-05
-2.07328e-05
-1.05341e-05
5.75138e-06
2.51085e-05
-6.47181e-05
1.22294e-06
0.000118249
2.02311e-05
-6.96785e-05
-8.34581e-05
9.06892e-05
4.29547e-05
-6.09935e-05
-2.33599e-06
4.5246e-06
-2.48615e-05
-7.49836e-05
-6.30133e-06
3.3979e-05
6.28869e-05
-2.65881e-06
-2.97546e-05
-6.6773e-05
-1.08313e-05
7.42299e-06
3.03183e-05
-1.26916e-05
1.26485e-05
-3.24745e-05
-1.54036e-05
4.65962e-05
-6.06291e-07
-7.33233e-05
-3.61169e-05
3.19347e-05
5.07121e-05
5.52046e-05
-3.86607e-05
-2.7102e-05
-1.73191e-06
4.00443e-05
-1.28825e-05
1.15235e-05
2.75386e-05
1.51002e-05
2.02362e-05
3.27821e-05
-0.000103584
-2.37203e-05
5.62994e-05
-3.56049e-05
-8.56414e-05
0.000101618
-2.90703e-05
2.1579e-05
-5.19506e-05
6.29365e-06
-5.95592e-05
3.80189e-06
-4.01161e-05
2.2179e-05
-9.73803e-06
6.35827e-05
-2.76126e-05
-2.54391e-05
9.06731e-05
-5.55896e-05
-3.51443e-05
1.4781e-05
-2.3094e-05
3.46848e-05
-4.10143e-05
-1.09317e-05
2.98409e-05
3.4565e-05
-4.7846e-05
-5.78744e-05
-3.7299e-05
3.58621e-05
-1.02359e-05
-1.76755e-05
3.83474e-05
4.55114e-06
-3.07255e-05
-6.31746e-05
6.19073e-06
-5.68881e-05
0.000120349
-0.000117728
-6.80875e-05
1.0187e-05
-1.02157e-05
2.82164e-05
-1.9602e-05
-6.25593e-06
3.50747e-05
9.93139e-06
-5.96482e-05
5.40577e-05
-2.97577e-05
-7.26199e-07
-9.39122e-06
-2.64801e-05
5.89004e-05
9.35837e-05
7.95012e-05
-1.6892e-05
-6.8293e-05
-7.77045e-05
4.75618e-05
-1.31782e-06
1.17448e-05
5.16309e-05
-6.31505e-05
2.2143e-05
3.45721e-05
-3.89621e-05
4.9273e-05
9.85293e-06
-2.73691e-05
-7.18014e-05
-2.20723e-06
9.41253e-06
5.68602e-05
-2.01402e-05
-8.62207e-06
7.08969e-06
9.57749e-07
-2.9198e-05
-3.67719e-05
9.86736e-07
-7.08352e-06
-7.77071e-05
4.07123e-05
2.28039e-05
-2.33533e-05
-2.82733e-05
6.35604e-06
-3.10615e-05
-2.37785e-05
5.87653e-05
3.77756e-05
-8.88545e-05
1.88742e-05
2.82151e-05
2.42067e-05
-1.97263e-05
3.13717e-05
2.67719e-05
-2.78912e-05
-1.14414e-05
4.39797e-05
-1.8472e-05
6.28945e-06
-9.41637e-06
3.67077e-05
-1.65382e-05
-2.21904e-05
-3.26345e-05
2.11542e-05
-9.05292e-05
-2.25269e-05
7.17805e-06
-1.67807e-05
-5.12952e-05
-4.15265e-05
3.02573e-05
1.87582e-05
1.3452e-05
6.79975e-05
0.000103677
-2.68696e-05
-5.62214e-05
-7.36839e-06
-8.72917e-06
-8.22078e-06
-0.000119192
3.07655e-05
9.97079e-05
7.93554e-05
2.35238e-05
2.89513e-06
3.23564e-05
6.61903e-06
-1.27407e-05
-1.12375e-05
3.50154e-06
6.08938e-05
-6.73532e-06
5.99329e-05
-9.10799e-06
-4.93433e-05
-1.25007e-05
-1.7921e-05
3.41783e-05
-3.37975e-05
7.3954e-06
5.94534e-05
0.000102923
1.58971e-05
2.07359e-06
6.60843e-05
-5.49526e-05
-6.42204e-05
4.83636e-06
5.86053e-05
-3.53623e-05
-0.000113619
-3.21864e-05
8.25257e-06
3.03728e-05
4.09433e-06
1.25876e-05
-2.57909e-05
4.02995e-06
-1.99419e-05
-0.000115459
-8.30321e-06
2.34321e-05
1.67678e-05
-9.89961e-06
-1.77935e-05
3.41069e-05
5.38382e-05
-8.89646e-07
-3.26857e-05
-1.4483e-05
1.084e-05
2.86293e-05
1.41952e-05
-1.13214e-05
4.36339e-05
-9.70007e-06
4.36599e-05
-6.26035e-06
-6.49593e-05
8.33406e-05
7.37351e-06
-2.3359e-05
-5.29961e-05
8.22009e-06
-7.67077e-05
-5.47342e-05
1.69987e-05
-2.35281e-05
6.93038e-05
-5.89243e-05
-1.58967e-05
-3.797e-06
-4.36548e-05
1.75007e-06
6.90878e-06
-1.56343e-05
-1.26809e-05
-6.31355e-06
-2.87475e-05
6.35836e-05
-1.27363e-05
2.98872e-05
-1.94588e-05
0.00010666
-6.87316e-05
2.64263e-06
7.97834e-05
-7.28986e-05
-2.11626e-05
-1.82912e-06
-5.65453e-06
-3.0719e-05
-1.66241e-07
6.13106e-05
-4.53612e-05
-3.93705e-06
2.74234e-05
5.10009e-05
6.30144e-06
2.15231e-05
-5.93148e-05
-4.52384e-05
-4.56916e-05
-4.39744e-05
-2.38912e-05
-5.03426e-05
-2.24272e-05
-6.28913e-05
1.11947e-05
0.000117077
1.08847e-05
1.60374e-06
7.11612e-06
-1.24837e-05
-9.79607e-05
1.17281e-05
-2.43351e-05
-6.52869e-05
-4.5734e-05
9.77494e-05
-2.84512e-05
2.46854e-05
2.89716e-05
-3.3951e-05
9.19256e-05
-5.06383e-05
-3.13998e-05
4.17931e-07
2.2626e-05
5.2394e-05
-4.63506e-05
3.01911e-06
-7.25881e-05
3.62422e-05
4.53795e-05
5.10272e-05
4.96121e-05
1.1462e-05
6.31483e-06
1.3857e-05
1.41491e-06
1.35629e-05
-5.94299e-05
-5.26089e-05
-3.14451e-05
3.68989e-05
-1.13028e-06
4.39433e-06
1.65976e-05
1.01095e-05
-4.56736e-05
-5.67071e-05
-2.16062e-05
3.75404e-06
3.02106e-05
2.47178e-05
-3.7055e-05
-4.68157e-05
-8.03268e-05
-3.89207e-05
8.46451e-05
4.35199e-05
1.98979e-05
-8.17573e-06
-6.95779e-06
-5.38763e-05
3.58439e-05
-6.18503e-05
7.9043e-05
-1.59484e-05
-3.9917e-05
-6.26174e-05
3.51215e-05
5.15335e-05
1.97103e-06
-3.47057e-06
-9.94978e-06
5.45724e-05
-4.35943e-05
-3.2003e-05
3.58508e-05
-2.33704e-05
-7.19354e-06
3.16268e-05
-2.36789e-05
4.79082e-05
6.116e-05
-1.50185e-05
5.83362e-05
-1.60114e-05
-5.55501e-05
-4.11179e-05
3.92948e-05
8.73671e-05
-9.01881e-06
2.39065e-05
5.31235e-05
-2.11759e-06
3.75926e-05
-6.11141e-05
-5.3782e-05
4.75649e-05
-2.97431e-05
-7.41598e-05
-1.30138e-05
3.8289e-06
-4.95901e-05
-1.00629e-05
1.4806e-05
3.36766e-06
-4.77557e-05
-3.26615e-05
4.77931e-06
4.40957e-05
4.04308e-05
-4.65775e-05
-4.65796e-05
9.95398e-06
6.58096e-05
1.77753e-05
-1.76016e-05
-0.000102062
4.74707e-05
-2.01662e-05
-7.7755e-06
-8.79925e-06
4.50331e-05
-5.59166e-06
-5.70053e-05
-1.93106e-05
-3.39668e-05
4.75902e-05
2.1651e-05
-2.22094e-05
-2.47785e-05
-2.54151e-05
-5.89062e-06
-1.15657e-05
-4.13186e-05
-4.02369e-05
1.20583e-06
-4.48265e-05
2.04251e-05
3.38093e-06
-2.82915e-05
3.01641e-05
9.34838e-06
-6.71301e-05
-4.0574e-05
7.09333e-05
-3.39558e-05
-2.67512e-05
2.17734e-05
1.56363e-05
1.44393e-05
-8.90216e-06
-1.19933e-05
1.44325e-05
8.70281e-05
-9.6974e-07
1.24234e-05
-5.5928e-05
-1.92772e-05
3.9081e-05
3.06976e-06
-4.055e-05
7.56641e-06
6.72851e-05
3.94988e-05
-7.47545e-05
-3.48641e-05
2.46889e-05
-5.16151e-05
3.76708e-06
-4.08548e-05
-1.83195e-05
8.32834e-05
-3.53504e-05
-3.5636e-05
-9.10182e-06
-2.37037e-05
-7.61582e-05
-4.31737e-05
-3.44525e-05
3.0332e-05
-5.93204e-05
-4.43419e-05
-1.38483e-05
2.80144e-05
4.4345e-05
7.11216e-06
-4.18513e-07
-3.37951e-05
5.63177e-05
4.62115e-05
-7.5162e-05
0.000106831
-4.85464e-05
-1.38166e-05
-8.4145e-07
-1.47611e-05
-6.57002e-05