# vtk DataFile Version 1.0
Net Charge Density
ASCII
DATASET STRUCTURED_POINTS
DIMENSIONS 256 128 1
ORIGIN 0 0 0
SPACING 0.15625 0.15625 1
POINT_DATA 32768
SCALARS rhonet float
LOOKUP_TABLE default
-3.89642e-06
-9.51276e-05
0.000144792
9.6322e-05
3.56842e-05
0.00012045
-0.000118445
9.18582e-05
0.000154217
2.28992e-05
-3.75607e-05
0.000108725
0.00010382
7.94455e-05
0.000109346
4.99608e-05
8.7743e-05
0.000140236
4.0588e-05
-6.79105e-05
-6.40727e-06
0.000141859
0.000144767
4.77822e-05
3.72682e-05
2.07429e-05
7.74214e-05
9.05892e-05
-1.35211e-05
-7.27428e-05
5.23025e-05
3.97232e-05
4.36688e-05
6.90082e-05
1.24412e-05
0.000171713
1.68071e-05
7.28725e-05
7.73577e-05
-5.53078e-06
2.29322e-05
6.83195e-06
0.000136404
9.39812e-05
2.09387e-05
1.8683e-05
-3.16135e-05
6.95549e-05
0.000116213
7.8872e-05
-1.20075e-05
2.49777e-05
8.34423e-05
0.000148995
3.55949e-05
1.7504e-05
0.000151011
-5.17475e-05
5.67781e-06
7.16957e-05
5.02799e-05
6.06022e-05
7.16792e-06
8.01802e-05
8.22487e-05
-8.03836e-05
4.41821e-05
0.000136175
4.09958e-05
4.82833e-05
7.92339e-05
3.67109e-05
-2.69153e-05
4.96673e-05
-1.15135e-07
5.1155e-05
4.2086e-05
-3.83079e-05
9.21629e-05
0.000106615
8.71846e-05
2.54083e-05
7.49616e-05
0.000101106
4.54686e-05
-4.48024e-06
-1.66912e-05
6.70482e-05
0.000119669
-2.34877e-05
9.00029e-05
-1.47957e-05
-3.90526e-05
-6.21495e-06
-8.99172e-05
5.22719e-05
0.000157961
2.40974e-05
9.16885e-05
-2.49448e-05
0.000157723
9.09191e-05
-3.16952e-06
9.47258e-05
3.90384e-05
0.00013097
-2.57511e-07
-6.85496e-05
2.66253e-06
7.4e-05
0.00013342
5.79276e-05
2.02986e-05
3.31153e-05
8.04213e-05
4.36598e-05
1.22653e-05
7.49694e-05
5.09602e-05
4.32273e-05
-3.98806e-05
-3.45636e-05
4.04441e-05
2.44899e-05
0.00011572
6.60873e-05
1.82549e-05
8.13096e-05
1.99639e-05
-1.88103e-05
0.000119796
9.26162e-05
-2.24379e-06
3.77488e-05
2.03246e-05
6.79679e-06
4.4609e-05
-3.19165e-05
4.68967e-05
-1.15025e-05
-4.98404e-05
2.32955e-05
2.09623e-05
0.000160761
9.88225e-05
2.06393e-06
0.000137836
1.15244e-05
-3.11239e-05
0.000132418
1.78269e-05
2.91318e-05
0.000108428
-8.34593e-06
3.45043e-05
4.32306e-05
5.74649e-06
3.42709e-05
-5.27652e-06
1.75423e-05
7.67778e-05
2.50085e-05
0.000112709
-2.20694e-05
3.25858e-05
2.55229e-05
5.8462e-05
-6.12722e-05
0.000105448
0.000137296
2.50293e-05
4.32233e-05
7.45812e-05
0.000111579
-2.02681e-05
-8.13301e-06
8.72927e-05
-8.23222e-05
1.15577e-05
3.31807e-05
8.8769e-05
-7.05996e-05
-3.18114e-05
5.65359e-06
1.0499e-05
7.98533e-05
4.14202e-05
7.20923e-05
0.000102554
7.46853e-05
2.4884e-05
0.000198125
8.16127e-05
-6.56992e-05
6.24199e-05
0.000201229
4.75224e-05
8.32754e-05
7.8667e-05
-1.63089e-05
5.95989e-05
0.00014917
4.39016e-05
3.83357e-05
-1.00756e-05
6.9771e-05
-5.98878e-05
5.34242e-05
6.86802e-05
8.57909e-05
6.8102e-05
0.000137439
0.000106096
-2.40522e-05
0.000111081
-0.000131281
0.000102691
9.90948e-05
-5.28726e-05
-3.79215e-05
8.6974e-05
0.000114877
0.000176992
3.40524e-05
7.95298e-05
5.67448e-05
-3.6914e-05
-1.51403e-05
8.69035e-05
6.86068e-05
6.22857e-06
4.16544e-05
2.36374e-05
2.60691e-05
0.000121307
-3.55698e-05
-2.05771e-05
2.75004e-05
5.94517e-05
8.97981e-06
1.84991e-05
8.66945e-05
-5.82671e-05
-3.07336e-07
2.65902e-05
-1.44094e-05
-2.21964e-05
-3.95464e-05
0.000128655
-4.29677e-06
2.10485e-05
-3.85132e-05
0.000102294
2.14376e-05
2.40528e-05
4.18616e-05
-0.000104899
2.47048e-05
-6.30288e-05
-2.51201e-05
-2.38868e-05
5.12265e-05
-2.60449e-05
-7.57638e-05
4.98934e-05
-6.60463e-05
-4.28997e-05
2.33413e-05
-5.99085e-05
-8.02728e-05
3.00223e-06
-4.24258e-05
4.6622e-06
1.08921e-05
-2.15754e-05
-4.06045e-06
-5.82072e-05
-6.74941e-05
-0.000106138
-1.79202e-05
-2.00458e-05
-5.72717e-05
-2.52757e-05
7.73033e-06
-3.07411e-05
-8.53868e-05
-3.53892e-05
-8.36176e-06
2.74417e-05
-7.95684e-05
-6.67485e-05
2.31331e-05
-0.000103178
-3.37884e-05
1.98336e-05
-8.20332e-05
-5.15864e-05
-4.38411e-05
8.67271e-06
3.55999e-05
-2.47124e-05
4.87431e-06
-0.000112384
-3.15167e-05
3.88799e-05
-3.39414e-05
-6.56135e-05
-4.11929e-05
-3.1738e-05
2.98233e-05
-2.85322e-05
-3.54565e-05
-2.34866e-05
-0.00011611
1.48105e-05
-3.37937e-05
4.56307e-05
-5.12692e-05
-5.7285e-05
-3.73458e-05
-3.01478e-05
-6.05672e-05
-1.00284e-05
-7.96344e-05
-0.000109192
1.21051e-05
-4.39815e-05
9.01741e-06
-1.84355e-05
1.72416e-05
-5.13534e-05
-1.04336e-05
4.761e-05
-2.54943e-05
5.74086e-05
2.15601e-07
-3.24125e-05
-5.04445e-05
-8.22565e-05
2.84828e-05
2.44661e-05
-6.16948e-05
-0.000158638
-4.16981e-05
-6.60075e-08
-1.69137e-05
8.77387e-06
5.33129e-05
3.1559e-06
-1.07943e-05
2.47145e-05
-5.96559e-06
3.43228e-05
-2.73114e-05
-6.84708e-06
-1.89489e-06
-4.36432e-05
-0.000106617
-3.96518e-05
-2.96774e-05
-3.55599e-05
1.64222e-05
-5.91237e-05
-4.27187e-05
-1.06741e-06
-5.9997e-06
5.43525e-05
-3.54238e-05
-7.13799e-05
-7.13184e-05
4.01697e-05
1.15475e-05
-5.2351e-05
-1.11547e-05
9.64559e-06
3.18992e-05
-8.57749e-05
1.39619e-05
-6.13793e-05
-7.7415e-06
-3.4863e-05
-1.67096e-05
-4.55659e-05
-6.96029e-05
1.70247e-05
-4.88105e-05
-2.07967e-05
1.59815e-05
-1.0553e-05
-2.35452e-05
-1.24415e-05
-3.31044e-05
-4.60129e-05
-1.33577e-05
-4.22454e-05
-8.3237e-06
-5.94476e-05
-7.82581e-05
8.69762e-06
-2.01957e-06
-8.38249e-05
1.05491e-05
-3.22356e-05
-4.36762e-05
-0.000117681
-8.72544e-06
-3.99579e-05
-3.83079e-05
-7.16747e-05
9.37073e-06
3.00051e-05
-1.70411e-05
-2.39993e-05
-1.85601e-06
-5.11222e-05
-2.02559e-05
-8.13482e-05
-6.40948e-05
3.62427e-05
-8.02705e-05
-7.56327e-06
2.37459e-05
2.21166e-05
-5.27812e-05
-2.42481e-06
3.60701e-05
-9.46564e-05
1.02376e-05
-2.21477e-05
3.97033e-05
-4.1351e-05
-2.55473e-05
-5.70016e-06
3.04058e-05
-6.90699e-05
-4.77677e-05
3.67507e-05
-4.79643e-06
2.05892e-06
-4.86562e-05
-0.000107548
-6.60245e-05
-2.66003e-05
-2.248e-05
-9.32999e-06
-1.88572e-05
-0.000101449
6.32287e-06
3.69594e-05
4.6104e-06
-1.08491e-05
-2.36549e-05
-8.50835e-05
-3.90911e-05
4.81103e-05
-6.9777e-06
-7.51883e-05
-6.46283e-05
-4.37902e-05
3.07559e-05
-5.53511e-05
1.83075e-06
-5.12169e-05
9.71671e-05
1.17974e-05
-4.14066e-05
-5.2241e-05
-4.83999e-05
-4.74001e-05
3.21252e-05
-3.50832e-05
-7.29868e-05
1.69768e-06
-2.53876e-05
-1.98885e-05
4.50586e-06
-1.73196e-05
7.05677e-05
5.70889e-05
-6.70671e-05
-3.48978e-05
-2.73384e-05
-7.02047e-05
-2.06067e-05
2.42679e-05
8.58861e-05
-8.70344e-05
6.93428e-06
-4.34538e-05
-3.62699e-05
6.90327e-05
3.75883e-05
-6.27583e-05
-4.99096e-06
2.55416e-05
-5.11216e-05
2.26249e-05
-1.3483e-05
-4.80207e-05
-1.98239e-05
3.05474e-06
3.73247e-05
3.4268e-05
-1.23481e-05
-2.31679e-05
-0.000132199
-1.66707e-07
-7.60693e-06
5.1258e-05
-7.35302e-06
-7.36321e-05
5.01703e-06
-3.30424e-05
-1.99093e-06
5.00252e-05
-7.79796e-06
-2.33891e-05
-8.48039e-06
1.05437e-06
-1.92297e-05
7.13238e-05
-5.15231e-05
7.82264e-06
3.11636e-05
6.53429e-05
-4.67901e-05
-2.9064e-05
-1.14904e-05
-2.49572e-05
-9.34282e-05
-2.04818e-05
3.51592e-05
4.88632e-05
3.64084e-05
-1.64525e-05
3.77701e-05
6.14581e-05
-4.75245e-05
4.48452e-05
4.40083e-05
9.82254e-06
-5.10865e-05
1.23072e-05
2.3444e-05
7.04302e-05
4.96681e-05
-3.57144e-05
2.25286e-05
5.27385e-06
-2.51163e-05
4.8009e-05
3.40395e-05
2.11627e-05
-2.89202e-05
-7.34264e-05
2.16751e-05
3.4873e-05
1.42085e-06
-4.63355e-05
1.81713e-06
-1.65717e-05
5.22444e-05
1.92712e-05
-4.25103e-05
-9.05944e-05
6.88422e-06
2.94283e-05
9.43267e-06
3.90757e-05
-4.01764e-05
2.79776e-05
-3.30701e-05
9.02758e-05
1.87051e-05
2.19359e-05
-2.38944e-05
3.89221e-05
7.95069e-05
-1.42993e-06
-1.07867e-05
-4.3123e-05
-5.63423e-05
3.65562e-05
5.69108e-06
-2.9766e-05
3.185e-05
-3.75099e-05
-1.97687e-05
6.36959e-05
5.06415e-05
-4.80592e-05
-4.1877e-05
-9.31264e-06
-2.63561e-05
-1.33663e-05
5.0945e-05
7.41069e-05
-1.38809e-05
-5.52131e-05
-6.02392e-05
2.2547e-05
4.01656e-05
-3.56468e-05
4.60861e-05
6.04029e-05
1.00421e-05
-2.72852e-05
-6.84017e-05
1.03849e-05
-3.90667e-05
-6.67312e-05
1.89329e-05
-3.86646e-05
-7.26085e-05
1.55342e-05
3.44659e-05
-9.18156e-06
-2.52386e-05
3.49989e-05
6.7194e-05
-7.81415e-06
-2.34849e-05
1.90875e-05
-3.45567e-05
-3.24671e-06
3.17625e-05
-4.33617e-05
-4.44569e-05
-1.29164e-05
6.19079e-05
-1.54723e-05
-1.92424e-05
-9.33534e-07
1.07806e-05
-2.67865e-05
6.43285e-05
6.28293e-07
3.16112e-05
-3.45435e-05
-2.02106e-05
3.29813e-05
-8.92975e-06
-5.33774e-05
-6.58386e-05
-1.97741e-05
2.38302e-06
3.65477e-05
8.36793e-06
-1.8779e-06
1.48289e-05
-2.75738e-05
4.24774e-05
2.79525e-05
9.69106e-05
6.65832e-05
1.94266e-05
1.45667e-05
-1.36639e-05
5.90177e-05
5.77695e-05
-3.53309e-05
8.65557e-05
-1.88479e-05
-2.10219e-05
-5.39368e-05
1.12338e-05
-1.22986e-05
7.03165e-05
-1.07868e-05
6.14894e-06
5.77931e-05
3.47518e-05
-3.56397e-05
-5.85569e-06
4.38265e-05
2.99955e-05
1.48884e-05
3.09385e-06
-6.29968e-05
1.44138e-05
-9.34466e-05
4.10875e-05
-3.34159e-05
-7.29717e-05
6.78666e-06
-4.31377e-05
3.26061e-05
-5.40692e-05
-3.51892e-05
-7.38073e-06
-3.46781e-05
7.78155e-06
5.28593e-05
1.6699e-05
-1.61503e-06
7.61892e-05
-2.89618e-06
5.27899e-05
3.30997e-05
2.69047e-05
3.20119e-05
-4.14012e-05
-7.91211e-05
6.70366e-06
-3.71058e-05
3.39118e-07
3.12878e-05
2.55896e-05
4.62425e-05
-7.34418e-06
3.8557e-05
-1.82485e-05
8.60398e-05
-3.51756e-05
-2.42111e-05
-2.44785e-05
3.96881e-05
3.96364e-05
-5.5962e-06
-1.59815e-05
5.26491e-05
-3.12823e-05
-9.51288e-06
1.32089e-05
3.03083e-05
4.01438e-05
-6.21304e-05
6.55791e-06
-4.02806e-05
7.68165e-05
-2.30573e-05
2.42749e-06
-2.36238e-05
-7.65733e-06
1.05577e-06
-7.58455e-05
1.8905e-05
4.24918e-05
2.73308e-06
-4.68808e-05
-0.000111356
2.32973e-05
1.92823e-05
1.66986e-06
4.11414e-05
-1.26256e-05
3.11469e-06
-2.15394e-05
-7.41894e-05
3.57796e-05
1.81666e-05
-4.43209e-05
1.38062e-05
2.4942e-05
-1.40064e-05
-5.45265e-05
-1.59669e-05
4.8483e-05
-4.49934e-06
-0.000139603
5.79739e-05
3.08063e-05
0.000100899
-3.72757e-05
3.82717e-05
1.96727e-05
-2.19457e-05
-3.17001e-05
-3.15026e-05
5.79789e-05
8.84749e-05
-9.06794e-06
-5.99886e-05
9.21846e-06
8.46421e-06
-1.87429e-08
-2.0785e-05
-3.90371e-05
0.000130274
-3.43219e-05
-4.70516e-05
5.3711e-05
-2.79653e-06
2.82296e-06
-3.79189e-05
-6.05411e-05
4.75423e-05
4.84362e-05
-1.75368e-05
3.74634e-05
-5.19101e-05
4.18177e-05
3.39494e-05
-6.99728e-05
2.73657e-05
3.88057e-05
1.67806e-05
-5.26784e-05
6.28694e-05
-2.19626e-05
-4.31009e-05
-7.40308e-06
-2.66789e-05
4.25472e-05
3.64974e-06
2.7573e-05
-4.73878e-05
-6.4373e-06
3.03097e-05
-2.26302e-05
-8.19344e-05
-4.95824e-05
1.36232e-05
3.36366e-05
4.53524e-05
-3.78176e-05
6.72051e-05
-2.0206e-05
-6.2304e-05
4.74695e-05
4.6276e-05
1.24057e-05
3.82882e-05
2.15034e-05
5.87143e-05
-6.5e-05
-4.2566e-05
-1.34123e-05
4.39064e-05
4.787e-05
-2.23207e-05
-6.05177e-05
1.98279e-06
-2.43727e-06
-3.0012e-05
1.48918e-05
2.92049e-05
7.28874e-05
7.06628e-05
-3.58254e-05
-0.000140627
2.58461e-05
1.20327e-06
-2.88258e-05
-4.69695e-05
5.72423e-05
3.12584e-05
1.75565e-05
-0.000107817
-1.58477e-05
1.13323e-05
3.99515e-05
3.28135e-05
-4.30105e-05
3.20359e-05
3.74884e-05
-3.91933e-05
2.83308e-05
3.71942e-05
-1.37142e-05
3.56361e-05
-5.4416e-05
8.30453e-05
3.03242e-05
-1.94274e-05
-2.6729e-05
6.84281e-05
4.12184e-05
-2.91597e-05
3.35348e-05
3.92146e-05
3.68368e-05
-3.48374e-05
-2.81518e-05
1.41677e-05
3.52944e-05
-7.15661e-05
-2.16153e-05
4.60056e-05
3.64985e-05
2.3186e-05
-3.12359e-05
-7.13486e-05
2.25483e-05
-3.52722e-05
7.69857e-05
-4.16433e-05
-1.3786e-05
7.45147e-05
-5.40668e-05
4.00399e-06
-1.77845e-05
-5.58045e-05
2.0123e-05
5.96012e-06
5.0582e-05
6.31156e-05
-6.58249e-05
8.14188e-05
-4.32238e-05
-2.44332e-05
2.67201e-05
4.39398e-06
9.56806e-06
7.65547e-06
4.39072e-06
-4.22162e-05
2.17026e-05
1.01279e-05
-1.56349e-05
-7.88141e-05
-2.79718e-05
-7.33114e-06
2.62833e-05
6.22938e-06
2.38402e-05
-8.04104e-06
5.26159e-05
3.00965e-05
-3.07957e-05
-8.68589e-05
1.14745e-05
3.8733e-05
1.1161e-05
-2.85618e-05
-9.1251e-06
-2.48151e-06
2.21184e-05
-3.22959e-06
2.53443e-05
2.25469e-05
3.20963e-05
-2.08741e-05
-3.06242e-06
6.05546e-06
-3.41376e-06
3.49665e-05
-2.44874e-05
5.34736e-05
1.96629e-05
1.27887e-05
-1.15687e-05
2.92526e-05
2.8708e-06
3.39593e-05
-1.87166e-05
-2.88652e-06
-6.90414e-05
2.46685e-05
-5.0388e-06
-1.26838e-05
2.05978e-05
-2.63402e-05
-2.66195e-06
-3.0247e-05
-7.38932e-05
-1.1654e-05
0.000124287
-9.67182e-05
2.30558e-05
4.08883e-05
1.12085e-05
1.89699e-05
2.2975e-05
-6.50403e-05
-1.85566e-05
-3.58943e-05
9.88762e-06
-2.25084e-05
-0.000114619
5.06439e-05
-0.000120174
-5.21549e-05
0.000129995
-2.85544e-05
-3.29316e-05
1.39808e-05
-3.08792e-06
-4.58409e-06
-6.87172e-05
5.00935e-07
2.54065e-05
-3.06803e-05
-4.83699e-05
-2.09836e-05
3.7746e-05
3.99076e-05
1.09903e-05
-3.37755e-05
2.43067e-05
4.91925e-05
4.58607e-05
-7.13917e-05
-6.57423e-05
-4.48686e-05
5.14659e-05
2.45054e-06
-1.54728e-06
-6.9671e-05
3.42028e-07
-1.04237e-05
6.89435e-06
-2.29036e-05
-2.3552e-06
-3.06221e-05
3.27411e-05
-3.2268e-06
-1.0337e-05
-2.52567e-05
2.84619e-05
9.52228e-05
-3.02619e-05
3.21711e-05
4.43815e-05
-4.54087e-05
-0.000101101
-3.30772e-05
0.00011101
6.25447e-05
-5.28281e-05
-0.000107186
-1.18128e-05
6.85669e-05
3.46117e-05
-5.40467e-05
-5.21372e-05
4.75177e-05
-4.06371e-05
-0.000119436
6.12033e-05
-1.81568e-05
-3.1173e-05
0.000105493
-4.5473e-05
-9.29437e-05
-5.38456e-05
9.50566e-06
-5.54988e-05
1.67231e-05
4.28152e-06
-7.23691e-05
6.52485e-06
4.59247e-05
6.77747e-06
-2.06707e-06
5.32221e-05
2.83381e-05
-3.75985e-05
-4.85517e-05
0.000104193
-1.62804e-05
-5.72763e-06
-2.96998e-05
-2.67231e-06
-4.58123e-05
8.228e-06
-1.31109e-05
-4.38887e-05
-3.36705e-05
-5.49547e-05
4.80604e-05
-3.439e-05
5.50936e-05
-3.26771e-05
-2.49937e-05
-9.6088e-06
3.26964e-05
-4.34382e-05
8.21743e-05
3.99048e-06
1.01073e-05
-2.64159e-05
-1.68511e-06
5.18316e-05
-5.05238e-05
7.65336e-05
-2.69969e-05
-2.84477e-05
5.25324e-06
1.91295e-05
5.75265e-05
-1.55069e-05
1.41477e-05
1.54797e-05
9.67546e-05
-2.60591e-05
2.79758e-06
-6.8649e-05
-4.36464e-06
5.3558e-06
-6.22589e-07
-1.12273e-05
2.76121e-05
-7.06448e-05
2.38859e-05
3.64635e-05
-5.86105e-06
-1.47324e-05
5.85362e-05
-1.46369e-06
5.05475e-07
-8.36374e-06
-6.68821e-05
-7.4585e-06
-5.66776e-05
5.49143e-05
-1.55678e-05
-6.51167e-05
1.93968e-05
-2.50093e-05
1.49549e-05
4.44493e-05
-8.87807e-06
-5.64915e-05
-7.07048e-05
-8.34151e-06
-2.96297e-05
-2.15252e-06
-1.83213e-05
-1.89315e-06
-0.000102777
8.7478e-06
3.24817e-05
3.07964e-05
-0.000103662
-3.61557e-05
2.02424e-05
8.39117e-05
4.75231e-06
-1.31455e-05
3.19692e-05
7.14674e-07
-3.7137e-05
-7.51379e-05
-6.92118e-05
-2.21259e-06
-7.09705e-05
1.3673e-06
-4.37514e-05
5.21012e-05
-3.20333e-05
-2.11227e-05
9.38249e-06
-1.06078e-06
4.85114e-06
-2.59295e-05
5.72976e-05
-2.03841e-05
4.02208e-05
1.71226e-05
-4.36113e-05
4.79096e-06
-4.09897e-05
-3.49013e-07
2.30942e-05
-3.31628e-05
1.34481e-05
1.23591e-05
-2.61036e-05
-4.63813e-05
1.17687e-05
-4.40202e-05
0.000100773
4.16171e-05
5.95758e-05
5.72763e-06
3.63565e-06
3.7217e-05
-2.83868e-05
-2.65331e-05
-3.87037e-05
-3.32441e-05
-2.94531e-06
-4.83426e-06
-7.42391e-05
-9.21184e-05
-4.12925e-05
9.36044e-05
1.79682e-05
2.46142e-05
5.07894e-05
-3.90917e-05
-4.86933e-05
-6.07779e-05
2.91872e-05
-7.01526e-05
2.39774e-05
5.71009e-05
1.43816e-05
-8.5445e-05
6.48925e-05
5.64114e-06
1.15014e-05
-0.000120717
5.33743e-05
7.36077e-05
5.39166e-06
1.38738e-05
1.18413e-05
-9.65036e-06
3.66956e-05
-3.03434e-05
4.71817e-05
6.17241e-05
-4.68129e-06
-4.04324e-05
-2.984e-05
4.8338e-06
-1.19209e-06
4.36951e-05
-1.84984e-06
-1.1377e-05
-1.70616e-05
7.82472e-05
-4.58362e-06
1.7914e-05
-3.62854e-05
-7.78636e-05
7.38349e-05
-9.19309e-05
-5.20749e-06
2.09289e-05
2.30619e-06
7.05892e-05
3.83815e-05
7.42113e-06
5.50142e-05
-1.01443e-05
4.60939e-05
-1.68376e-05
-5.88746e-05
-4.91897e-05
5.14218e-05
5.45881e-05
-1.9853e-05
5.81008e-05
3.02005e-05
1.38805e-05
2.24963e-05
6.25567e-05
6.9011e-06
-8.80079e-05
-1.34252e-05
-5.00772e-06
4.87e-05
5.99241e-05
6.30916e-05
1.42644e-06
2.14423e-05
-2.6638e-05
-9.90415e-06
-6.22049e-05
-1.60282e-05
3.25944e-05
-3.85356e-05
-1.90415e-05
5.31538e-05
-2.28162e-05
1.541e-05
-4.23553e-05
-5.64614e-07
-5.11484e-05
-1.0791e-05
-0.000114606
2.06345e-05
1.91713e-05
7.2854e-05
2.73277e-05
-4.94909e-05
5.05783e-05
5.27869e-05
6.41986e-05
-7.99075e-06
4.43973e-05
-4.86512e-05
-2.58867e-05
-3.12886e-05
9.76645e-05
-4.46023e-05
-4.87091e-05
2.7045e-05
-5.04584e-05
1.36553e-05
-9.01831e-05
-0.000131356
6.04801e-05
5.67491e-05
-1.7009e-05
2.47731e-05
-9.10868e-06
5.16698e-05
-8.06582e-05
3.82907e-05
3.78338e-05
1.59072e-05
-7.9755e-06
-6.65511e-06
3.57422e-05
3.13772e-05
-9.32618e-05
-4.72957e-05
-9.38082e-05
-4.97688e-05
6.84748e-05
-3.54396e-05
9.14489e-06
-3.66226e-05
3.87214e-05
1.69342e-05
4.4761e-05
-5.40488e-05
2.94939e-05
6.61317e-05
1.22411e-05
-6.64283e-05
1.13412e-06
1.4817e-05
-1.36937e-05
6.08951e-05
-9.09087e-07
7.89304e-05
9.09658e-06
5.26163e-05
-9.66366e-05
3.41132e-05
6.60541e-06
-1.27819e-05
-4.43457e-05
-2.06705e-05
3.15066e-06
-9.30391e-07
-6.30611e-05
-0.000100798
-4.15874e-05
-9.15085e-05
-4.81865e-05
5.62918e-05
-1.52456e-05
-5.22906e-05
-2.41196e-05
-1.08292e-05
-4.57694e-05
-4.23088e-05
1.19058e-05
2.83611e-05
-1.41365e-05
-5.28248e-05
-6.13478e-05
1.7732e-05
1.0733e-05
-2.08271e-05
5.96307e-05
1.79058e-06
2.51201e-05
-2.3635e-05
5.88674e-05
3.18957e-05
4.7611e-05
-7.31898e-05
7.22462e-05
-0.000100922
-6.24126e-06
6.49316e-05
8.48901e-06
3.23063e-05
-3.30689e-06
-4.32201e-05
2.37767e-06
1.99975e-05
-1.27292e-05
9.59344e-06
3.614e-05
2.75427e-05
6.92141e-05
-2.72389e-06
-6.3224e-05
-6.14522e-06
-7.61065e-06
-1.02118e-05
4.45036e-05
5.2012e-06
2.67308e-05
-6.62939e-06
-4.79852e-06
-2.94801e-05
1.43552e-05
5.68992e-06
6.79197e-05
9.01241e-06
3.43911e-05
1.84248e-05
1.29041e-05
-4.4652e-05
3.45929e-05
3.36549e-05
1.9389e-06
-1.88093e-05
4.46874e-05
-5.23892e-05
6.75359e-05
7.74649e-05
6.37176e-06
8.13847e-05
-3.18103e-05
2.20669e-05
-1.73565e-05
-2.87808e-05
-6.86583e-05
1.19235e-05
2.47909e-05
1.23704e-05
-3.48679e-05
2.1678e-05
-2.20754e-05
-3.52541e-06
1.23348e-05
1.70909e-06
2.97122e-05
-6.88562e-05
-1.33736e-05
9.18951e-05
-3.43509e-05
1.47285e-05
-1.23632e-05
4.94568e-05
2.42065e-05
-4.44689e-05
5.05936e-05
0.000106778
9.66931e-05
6.52503e-05
8.90228e-07
-7.20704e-06
-1.14569e-05
6.669e-05
-5.448e-06
4.0179e-05
-2.33978e-05
4.17562e-05
-3.41274e-05
-2.13977e-05
6.28119e-06
-2.62641e-05
3.5821e-05
-8.93143e-05
4.69462e-05
-3.57552e-05
3.30247e-05
2.34641e-05
-9.97122e-05
2.21343e-05
3.57021e-05
-1.87462e-05
2.13258e-05
-6.78236e-05
2.71621e-05
-5.16979e-05
5.68143e-05
4.88441e-05
-1.74802e-05
3.8041e-05
4.5417e-05
1.17876e-05
-8.38016e-06
2.07496e-05
-2.05643e-05
5.28258e-05
-7.57058e-05
-4.2627e-05
-7.67282e-06
2.04982e-05
-1.54356e-05
-3.12333e-05
1.17398e-05
6.21653e-05
4.88082e-05
4.33601e-06
-0.00012757
-5.02237e-05
-6.86678e-05
-6.60996e-05
3.09132e-05
7.61508e-05
-7.01355e-05
-7.03032e-06
9.28447e-06
4.82406e-05
3.84031e-06
8.47329e-06
-6.75762e-05
-1.85831e-05
1.21741e-05
-8.66817e-06
-3.19523e-05
-1.42835e-05
3.18373e-06
7.33079e-06
1.82411e-05
2.56517e-05
-6.78841e-05
-4.71482e-06
3.49288e-05
-5.0533e-05
1.07939e-05
-1.50148e-05
-1.63052e-05
-2.95389e-05
9.5389e-05
2.63908e-05
-1.76691e-05
-2.15019e-05
-1.27992e-05
8.03324e-06
-1.35811e-05
2.63904e-05
-7.1855e-06
-1.90847e-05
2.17276e-05
5.39323e-05
-9.03433e-05
5.79043e-05
-1.44775e-05
-1.46057e-05
-3.8323e-05
-4.54383e-05
2.61617e-05
5.74811e-05
2.07165e-05
1.80583e-05
2.61941e-05
-7.22194e-06
-2.65964e-05
2.3871e-05
-3.81796e-05
-3.29992e-05
2.86619e-05
4.19572e-06
5.34139e-05
-1.2902e-05
-4.54637e-06
9.10499e-05
1.6332e-05
1.69135e-05
-4.63276e-05
3.55744e-05
-3.91718e-05
2.29463e-05
1.72224e-05
3.08594e-06
6.80579e-05
6.72811e-05
-1.70232e-05
-7.54732e-06
4.55872e-05
-1.23871e-05
-6.61192e-06
0.000122597
3.2628e-05
1.82126e-05
2.49492e-05
-5.22539e-05
-2.22389e-05
-5.70164e-05
1.30502e-06
7.69075e-06
2.41781e-05
1.07714e-05
-5.20678e-05
1.76702e-05
6.44932e-05
-6.11882e-05
5.44072e-05
-4.49314e-05
-7.05202e-05
6.2309e-06
3.27921e-05
4.70874e-05
1.32737e-06
1.32953e-05
-7.78601e-05
-2.81832e-05
-6.89249e-06
0.000112601
3.68478e-05
-3.34255e-05
4.85632e-05
3.18345e-05
1.1489e-05
6.94899e-05
0.00013327
-7.38594e-05
-4.20364e-05
-1.68968e-05
2.04116e-05
8.13243e-06
-1.95547e-05
3.4755e-05
5.05911e-05
-6.30396e-05
-4.22694e-05
1.79632e-05
5.70345e-05
-6.66711e-07
2.83977e-05
-3.47798e-05
-8.23167e-05
-3.16927e-05
-5.5102e-05
-1.69487e-05
6.44e-05
-5.57769e-05
5.25215e-05
-0.000112341
-7.10648e-05
-1.52234e-05
-1.60269e-05
-3.59302e-05
5.28325e-05
4.40277e-05
-4.75475e-06
-6.05783e-05
-2.03251e-05
1.72125e-05
2.4091e-05
-2.15004e-05
-3.80278e-05
1.84209e-05
-5.22976e-05
-1.48037e-05
-9.04265e-05
-1.86138e-05
-1.40989e-05
0.000121307
-2.54699e-05
5.25204e-05
3.79471e-05
3.11938e-05
-3.85306e-05
-5.1026e-06
-4.49659e-05
2.6295e-05
1.12425e-05
-1.8605e-05
1.74426e-05
-3.76216e-05
8.71136e-06
-3.17954e-05
7.1465e-05
-7.47015e-05
0.000101809
5.19648e-05
3.18049e-05
1.94153e-05
4.63662e-05
-3.00456e-06
1.62402e-05
7.9999e-05
3.67581e-06
-1.37994e-05
-5.21085e-05
-5.62186e-05
2.68223e-05
-3.78018e-05
-4.78232e-05
2.88635e-05
-2.68995e-05
-1.16543e-05
-5.02805e-05
3.10766e-05
-2.00595e-05
3.8109e-05
-8.71738e-05
-4.69044e-05
1.67196e-05
4.92439e-05
9.12789e-06
1.42597e-06
-6.69425e-05
-7.27301e-05
-1.43612e-05
-9.74466e-06
-1.56974e-05
2.67378e-05
-9.21222e-05
-5.88642e-05
-1.25875e-05
5.10605e-05
-8.97491e-05
7.86018e-05
1.30899e-05
1.51683e-05
-0.000114672
-4.19716e-05
1.06478e-05
8.84164e-05
-6.75255e-06
-6.93067e-06
1.08086e-05
-9.15199e-05
-1.49581e-05
1.07787e-05
5.18087e-05
-3.28289e-05
4.25935e-05
9.43034e-06
7.85571e-07
4.03612e-05
-3.83484e-06
2.66728e-05
-2.21875e-05
6.11413e-07
2.16463e-06
1.83089e-05
-2.01634e-05
-7.52346e-05
-8.20158e-05
-4.08834e-05
3.0688e-05
3.11452e-05
-1.7603e-05
-1.14894e-05
3.875e-05
9.27411e-06
1.17535e-05
-4.44874e-05
-5.27484e-05
-4.26522e-05
9.60719e-05
-3.91065e-05
-6.17569e-05
-4.51248e-05
4.72041e-06
-4.15782e-05
-1.74786e-06
2.57664e-05
4.81139e-05
-3.50766e-05
2.89141e-05
3.42638e-05
2.19489e-05
-2.03148e-05
-2.84294e-05
2.95846e-05
6.23253e-05
1.81495e-05
-1.77092e-05
-4.22896e-05
-3.51772e-06
6.32224e-05
3.54694e-06
7.63184e-06
-5.29434e-06
1.017e-05
2.74985e-05
2.9136e-05
-2.60755e-05
-5.97402e-05
8.67876e-05
3.29313e-05
-1.45729e-05
-1.4237e-05
5.72902e-05
3.8431e-06
9.81888e-05
0.000121367
-2.85937e-05
2.49976e-05
7.872e-06
-1.86716e-05
-1.7015e-05
-7.32376e-05
0.00011208
-1.25973e-05
-6.0178e-05
7.86304e-06
3.08852e-05
9.78331e-06
7.84104e-06
1.71358e-05
4.86616e-08
-2.67226e-05
-2.56812e-05
-4.13363e-05
-4.55838e-05
-1.76242e-05
-7.76583e-06
-4.82691e-05
7.13982e-05
1.64241e-05
3.01735e-05
-3.19597e-05
1.39843e-05
-1.394e-05
-1.55892e-05
4.4764e-06
-1.65853e-05
8.27656e-05
5.56019e-05
5.6721e-06
3.54116e-05
2.86242e-06
-1.63056e-05
2.07492e-05
9.63174e-06
-1.4501e-05
-4.88877e-05
-4.07479e-05
-9.69192e-06
4.12578e-05
-2.15801e-05
-3.4153e-05
5.64965e-05
-1.37312e-05
-5.04197e-05
3.84743e-05
-2.33627e-05
-1.19617e-06
-5.94462e-05
5.95255e-06
6.40078e-05
-7.39726e-05
-2.23714e-05
-4.28874e-06
-7.43154e-05
-1.58098e-05
5.6006e-05
-2.41015e-05
5.20148e-05
4.58722e-05
-3.16427e-05
0.000122278
2.8997e-05
1.20708e-05
-2.74089e-05
-3.44685e-05
-3.20197e-05
5.98461e-05
4.27905e-05
-2.54266e-05
-1.6286e-05
4.25261e-05
4.55983e-05
-7.08051e-05
-4.53842e-05
-1.75918e-05
6.0013e-05
3.70808e-05
4.36972e-05
-7.64488e-06
2.17552e-05
1.48437e-05
1.47813e-05
3.4952e-05
1.44989e-05
-7.17352e-05
5.90795e-05
3.9353e-05
-1.62121e-05
4.74525e-05
-1.84561e-05
-3.84229e-05
8.46088e-05
5.78987e-05
5.2993e-05
-2.82947e-05
-1.40264e-05
-3.38187e-06
6.56869e-05
1.70162e-05
1.81666e-05
-1.45179e-05
-3.22158e-05
8.30158e-06
5.70648e-05
3.72084e-05
6.8962e-05
3.92863e-05
3.07859e-05
-1.59348e-05
4.17501e-05
8.47271e-06
-3.21824e-05
-1.0755e-05
-1.45928e-05
5.39318e-05
1.21887e-05
2.1124e-05
-2.64746e-05
1.12987e-05
-2.3908e-05
-1.4451e-05
1.09985e-05
-7.73533e-06
4.69014e-06
1.68595e-05
6.6706e-05
1.5799e-05
-0.00010758
-8.24989e-05
6.52345e-06
-5.85073e-05
5.17318e-05
1.84865e-05
1.66781e-05
-7.07679e-05
5.68526e-06
-1.86223e-05
-4.33435e-05
5.8328e-05
-4.15355e-05
-7.76745e-05
-1.33208e-05
-3.74753e-05
-1.09989e-06
5.0631e-05
3.43448e-05
5.21396e-05
2.95318e-05
4.71442e-05
-2.02376e-05
0.000134813
5.5166e-05
-3.82713e-05
-1.12219e-05
0.000111733
1.1283e-06
-1.38335e-05
-2.07326e-05
-1.05337e-05
5.75092e-06
2.51085e-05
-6.47181e-05
1.22236e-06
0.00011825
2.02319e-05
-6.96784e-05
-8.34581e-05
9.06895e-05
4.29547e-05
-6.09942e-05
-2.33622e-06
4.5246e-06
-2.48617e-05
-7.49842e-05
-6.30133e-06
3.39791e-05
6.28863e-05
-2.65904e-06
-2.97544e-05
-6.67728e-05
-1.08313e-05
7.42381e-06
3.03178e-05
-1.26917e-05
1.26479e-05
-3.24745e-05
-1.54037e-05
4.6596e-05
-6.06757e-07
-7.33228e-05
-3.61174e-05
3.19347e-05
5.0712e-05
5.52046e-05
-3.86608e-05
-2.71013e-05
-1.73203e-06
4.00437e-05
-1.28828e-05
1.15241e-05
2.75378e-05
1.51005e-05
2.02364e-05
3.27823e-05
-0.000103584
-2.37208e-05
5.62993e-05
-3.5605e-05
-8.56416e-05
0.000101618
-2.90703e-05
2.15792e-05
-5.19505e-05
6.29388e-06
-5.95581e-05
3.80166e-06
-4.01157e-05
2.21789e-05
-9.73791e-06
6.35828e-05
-2.76124e-05
-2.54391e-05
9.06733e-05
-5.5589e-05
-3.51443e-05
1.47813e-05
-2.30944e-05
3.46851e-05
-4.10142e-05
-1.09316e-05
2.98411e-05
3.45644e-05
-4.7846e-05
-5.78741e-05
-3.72989e-05
3.58617e-05
-1.02359e-05
-1.76756e-05
3.83474e-05
4.55067e-06
-3.07256e-05
-6.3175e-05
6.1912e-06
-5.68883e-05
0.000120349
-0.000117728
-6.8087e-05
1.01875e-05
-1.02161e-05
2.82162e-05
-1.96022e-05
-6.25581e-06
3.50749e-05
9.93186e-06
-5.96482e-05
5.40573e-05
-2.9758e-05
-7.25966e-07
-9.39076e-06
-2.64803e-05
5.89008e-05
9.35843e-05
7.95011e-05
-1.68921e-05
-6.82939e-05
-7.77037e-05
4.75623e-05
-1.31805e-06
1.1744e-05
5.16303e-05
-6.31507e-05
2.21429e-05
3.4572e-05
-3.89626e-05
4.92731e-05
9.85328e-06
-2.73692e-05
-7.1801e-05
-2.20735e-06
9.41264e-06
5.68598e-05
-2.01408e-05
-8.62218e-06
7.08993e-06
9.57516e-07
-2.91981e-05
-3.67718e-05
9.86736e-07
-7.08329e-06
-7.77077e-05
4.07123e-05
2.28045e-05
-2.33536e-05
-2.82734e-05
6.35558e-06
-3.10616e-05
-2.37784e-05
5.87655e-05
3.77756e-05
-8.88546e-05
1.8874e-05
2.8215e-05
2.42071e-05
-1.97262e-05
3.13717e-05
2.67724e-05
-2.78912e-05
-1.14413e-05
4.39801e-05
-1.84714e-05
6.2898e-06
-9.41625e-06
3.67081e-05
-1.65388e-05
-2.21913e-05
-3.26347e-05
2.11539e-05
-9.05285e-05
-2.25265e-05
7.17794e-06
-1.67801e-05
-5.12953e-05
-4.15264e-05
3.02577e-05
1.87581e-05
1.34516e-05
6.79974e-05
0.000103677
-2.68692e-05
-5.62213e-05
-7.36839e-06
-8.72929e-06
-8.22113e-06
-0.000119193
3.0766e-05
9.97077e-05
7.93553e-05
2.3524e-05
2.89513e-06
3.23566e-05
6.61856e-06
-1.27405e-05
-1.12365e-05
3.50154e-06
6.08942e-05
-6.73439e-06
5.99332e-05
-9.10775e-06
-4.93438e-05
-1.25016e-05
-1.79214e-05
3.41784e-05
-3.37979e-05
7.3954e-06
5.94539e-05
0.000102923
1.5897e-05
2.0744e-06
6.60842e-05
-5.49529e-05
-6.42204e-05
4.83636e-06
5.86053e-05
-3.53623e-05
-0.000113618
-3.21858e-05
8.25303e-06
3.03726e-05
4.09479e-06
1.25881e-05
-2.5791e-05
4.03018e-06
-1.99428e-05
-0.000115459
-8.30332e-06
2.34316e-05
1.67681e-05
-9.89914e-06
-1.77938e-05
3.4106e-05
5.38379e-05
-8.89646e-07
-3.26862e-05
-1.44828e-05
1.08395e-05
2.86298e-05
1.41953e-05
-1.13219e-05
4.36337e-05
-9.70042e-06
4.36596e-05
-6.25988e-06
-6.49594e-05
8.33401e-05
7.37375e-06
-2.33587e-05
-5.29967e-05
8.21962e-06
-7.6708e-05
-5.47342e-05
1.69993e-05
-2.3528e-05
6.93033e-05
-5.89248e-05
-1.58967e-05
-3.79665e-06
-4.36553e-05
1.74984e-06
6.9089e-06
-1.56341e-05
-1.26812e-05
-6.31367e-06
-2.87471e-05
6.35842e-05
-1.27365e-05
2.98875e-05
-1.94586e-05
0.000106661
-6.87318e-05
2.64263e-06
7.97826e-05
-7.28988e-05
-2.11626e-05
-1.82888e-06
-5.65476e-06
-3.07189e-05
-1.66357e-07
6.13106e-05
-4.53606e-05
-3.93728e-06
2.74235e-05
5.10011e-05
6.30214e-06
2.15227e-05
-5.93148e-05
-4.52382e-05
-4.56916e-05
-4.3974e-05
-2.38913e-05
-5.03429e-05
-2.24276e-05
-6.28908e-05
1.11945e-05
0.000117078
1.0884e-05
1.60327e-06
7.11554e-06
-1.2484e-05
-9.79602e-05
1.1728e-05
-2.43352e-05
-6.52868e-05
-4.57342e-05
9.77499e-05
-2.84506e-05
2.46849e-05
2.89715e-05
-3.39516e-05
9.19258e-05
-5.06386e-05
-3.13995e-05
4.17698e-07
2.2626e-05
5.23943e-05
-4.63515e-05
3.01923e-06
-7.25874e-05
3.62421e-05
4.53801e-05
5.10277e-05
4.96123e-05
1.14618e-05
6.31448e-06
1.38574e-05
1.41456e-06
1.3563e-05
-5.94299e-05
-5.26092e-05
-3.14448e-05
3.68991e-05
-1.13063e-06
4.39351e-06
1.65978e-05
1.01104e-05
-4.56737e-05
-5.67073e-05
-2.16055e-05
3.75404e-06
3.02105e-05
2.47175e-05
-3.70555e-05
-4.68162e-05
-8.03268e-05
-3.89206e-05
8.46451e-05
4.35198e-05
1.98977e-05
-8.1755e-06
-6.95733e-06
-5.38768e-05
3.58433e-05
-6.18512e-05
7.90431e-05
-1.59476e-05
-3.99179e-05
-6.26176e-05
3.5122e-05
5.15337e-05
1.97091e-06
-3.47034e-06
-9.94978e-06
5.45722e-05
-4.35944e-05
-3.20033e-05
3.58503e-05
-2.33704e-05
-7.19377e-06
3.16269e-05
-2.36791e-05
4.79086e-05
6.11597e-05
-1.5018e-05
5.8336e-05
-1.60109e-05
-5.55501e-05
-4.11179e-05
3.92951e-05
8.73671e-05
-9.01846e-06
2.39064e-05
5.31236e-05
-2.11759e-06
3.75921e-05
-6.1114e-05
-5.37818e-05
4.75651e-05
-2.97431e-05
-7.41594e-05
-1.30141e-05
3.82925e-06
-4.95901e-05
-1.00632e-05
1.48065e-05
3.3679e-06
-4.77553e-05
-3.26611e-05
4.77978e-06
4.40959e-05
4.04306e-05
-4.65777e-05
-4.65792e-05
9.95421e-06
6.58096e-05
1.77752e-05
-1.76016e-05
-0.000102062
4.74703e-05
-2.0167e-05
-7.77526e-06
-8.7989e-06
4.50333e-05
-5.59154e-06
-5.70056e-05
-1.93105e-05
-3.39668e-05
4.75907e-05
2.1651e-05
-2.22095e-05
-2.47791e-05
-2.54156e-05
-5.89038e-06
-1.15661e-05
-4.13182e-05
-4.02359e-05
1.20606e-06
-4.48256e-05
2.04255e-05
3.3807e-06
-2.82916e-05
3.01644e-05
9.34792e-06
-6.71302e-05
-4.0574e-05
7.09337e-05
-3.39558e-05
-2.67514e-05
2.17739e-05
1.56361e-05
1.44399e-05
-8.90228e-06
-1.19938e-05
1.44322e-05
8.7028e-05
-9.69856e-07
1.24229e-05
-5.59282e-05
-1.92773e-05
3.9081e-05
3.06976e-06
-4.05499e-05
7.56653e-06
6.72856e-05
3.9499e-05
-7.4754e-05
-3.48638e-05
2.46889e-05
-5.16153e-05
3.76697e-06
-4.08543e-05
-1.83193e-05
8.32836e-05
-3.53501e-05
-3.56364e-05
-9.10193e-06
-2.37034e-05
-7.61584e-05
-4.31732e-05
-3.44524e-05
3.03325e-05
-5.93208e-05
-4.43419e-05
-1.38481e-05
2.80143e-05
4.43449e-05
7.11204e-06
-4.18397e-07
-3.37961e-05
5.63177e-05
4.62115e-05
-7.51622e-05
0.000106831
-4.85465e-05
-1.38161e-05
-8.41334e-07
-1.47608e-05
-6.57004e-05