# vtk DataFile Version 1.0
Net Charge Density
ASCII
DATASET STRUCTURED_POINTS
DIMENSIONS 256 128 1
ORIGIN 0 0 0
SPACING 0.15625 0.15625 1
POINT_DATA 32768
SCALARS rhonet float
LOOKUP_TABLE default
-3.89619e-06
-9.51277e-05
0.000144792
9.6322e-05
3.56841e-05
0.000120451
-0.000118445
9.1858e-05
0.000154216
2.28995e-05
-3.75609e-05
0.000108725
0.00010382
7.94455e-05
0.000109346
4.99603e-05
8.77432e-05
0.000140235
4.05879e-05
-6.79101e-05
-6.40668e-06
0.000141859
0.000144767
4.77822e-05
3.72678e-05
2.07424e-05
7.74218e-05
9.0589e-05
-1.35218e-05
-7.27428e-05
5.23025e-05
3.97235e-05
4.3669e-05
6.9008e-05
1.24414e-05
0.000171713
1.68073e-05
7.28721e-05
7.73576e-05
-5.53112e-06
2.29322e-05
6.83218e-06
0.000136404
9.39815e-05
2.09387e-05
1.86829e-05
-3.16133e-05
6.95548e-05
0.000116213
7.88725e-05
-1.20075e-05
2.49783e-05
8.34423e-05
0.000148996
3.55951e-05
1.75041e-05
0.000151011
-5.17473e-05
5.67804e-06
7.16958e-05
5.02798e-05
6.0602e-05
7.16757e-06
8.018e-05
8.22487e-05
-8.03836e-05
4.41818e-05
0.000136175
4.09954e-05
4.82836e-05
7.92334e-05
3.67111e-05
-2.69158e-05
4.96677e-05
-1.14553e-07
5.11556e-05
4.2086e-05
-3.83081e-05
9.21623e-05
0.000106615
8.71844e-05
2.54081e-05
7.49612e-05
0.000101106
4.54674e-05
-4.47978e-06
-1.66909e-05
6.70487e-05
0.000119669
-2.34875e-05
9.0003e-05
-1.47953e-05
-3.90528e-05
-6.2139e-06
-8.99174e-05
5.22721e-05
0.000157961
2.40977e-05
9.16884e-05
-2.49444e-05
0.000157723
9.09187e-05
-3.16917e-06
9.47255e-05
3.90384e-05
0.00013097
-2.58093e-07
-6.8549e-05
2.66265e-06
7.39996e-05
0.00013342
5.79271e-05
2.02986e-05
3.3116e-05
8.0421e-05
4.36591e-05
1.2266e-05
7.49693e-05
5.09601e-05
4.32275e-05
-3.98804e-05
-3.45637e-05
4.04444e-05
2.44898e-05
0.00011572
6.60872e-05
1.82547e-05
8.13098e-05
1.99637e-05
-1.88099e-05
0.000119796
9.26164e-05
-2.24437e-06
3.77487e-05
2.03245e-05
6.79644e-06
4.4609e-05
-3.1916e-05
4.68966e-05
-1.15024e-05
-4.98405e-05
2.32958e-05
2.09622e-05
0.000160761
9.88224e-05
2.06393e-06
0.000137836
1.15242e-05
-3.11246e-05
0.000132418
1.78267e-05
2.91322e-05
0.000108428
-8.3457e-06
3.45046e-05
4.32304e-05
5.74684e-06
3.4271e-05
-5.27618e-06
1.75426e-05
7.67778e-05
2.50087e-05
0.000112709
-2.2069e-05
3.25858e-05
2.55231e-05
5.84617e-05
-6.12722e-05
0.000105448
0.000137295
2.50288e-05
4.32238e-05
7.45819e-05
0.000111579
-2.02676e-05
-8.13371e-06
8.72929e-05
-8.23226e-05
1.15579e-05
3.31806e-05
8.87691e-05
-7.05994e-05
-3.1811e-05
5.65336e-06
1.0499e-05
7.98535e-05
4.142e-05
7.20921e-05
0.000102554
7.46854e-05
2.48844e-05
0.000198126
8.16118e-05
-6.56997e-05
6.24193e-05
0.000201229
4.75224e-05
8.32758e-05
7.86665e-05
-1.63085e-05
5.95986e-05
0.00014917
4.39014e-05
3.83357e-05
-1.00755e-05
6.97707e-05
-5.9888e-05
5.34237e-05
6.86804e-05
8.57905e-05
6.81023e-05
0.000137439
0.000106096
-2.40523e-05
0.000111081
-0.000131281
0.000102691
9.90944e-05
-5.28727e-05
-3.79211e-05
8.69741e-05
0.000114877
0.000176992
3.40522e-05
7.95291e-05
5.67451e-05
-3.69139e-05
-1.51405e-05
8.69031e-05
6.86067e-05
6.22799e-06
4.16543e-05
2.36373e-05
2.60695e-05
0.000121307
-3.55706e-05
-2.0577e-05
2.75009e-05
5.94514e-05
8.97958e-06
1.84992e-05
8.6694e-05
-5.82663e-05
-3.07104e-07
2.65902e-05
-1.44098e-05
-2.21955e-05
-3.95466e-05
0.000128655
-4.29607e-06
2.10479e-05
-3.85129e-05
0.000102294
2.14382e-05
2.40527e-05
4.18617e-05
-0.000104899
2.47044e-05
-6.30284e-05
-2.51193e-05
-2.38873e-05
5.12267e-05
-2.60444e-05
-7.57638e-05
4.9893e-05
-6.60463e-05
-4.29003e-05
2.33413e-05
-5.99083e-05
-8.02728e-05
3.00212e-06
-4.24261e-05
4.66197e-06
1.0891e-05
-2.15751e-05
-4.06092e-06
-5.82074e-05
-6.74939e-05
-0.000106138
-1.792e-05
-2.00461e-05
-5.72717e-05
-2.52763e-05
7.73009e-06
-3.07413e-05
-8.53867e-05
-3.53889e-05
-8.36095e-06
2.74421e-05
-7.95684e-05
-6.67485e-05
2.31335e-05
-0.000103178
-3.3788e-05
1.98343e-05
-8.20332e-05
-5.15868e-05
-4.38415e-05
8.67259e-06
3.55998e-05
-2.47123e-05
4.87419e-06
-0.000112384
-3.15172e-05
3.88799e-05
-3.39414e-05
-6.56133e-05
-4.11926e-05
-3.1738e-05
2.98232e-05
-2.85319e-05
-3.54565e-05
-2.34862e-05
-0.000116111
1.48107e-05
-3.37934e-05
4.56299e-05
-5.12691e-05
-5.72851e-05
-3.73457e-05
-3.01471e-05
-6.05671e-05
-1.00286e-05
-7.96341e-05
-0.000109192
1.21044e-05
-4.39816e-05
9.01753e-06
-1.84359e-05
1.72418e-05
-5.13538e-05
-1.04331e-05
4.76099e-05
-2.54939e-05
5.74084e-05
2.163e-07
-3.24122e-05
-5.04444e-05
-8.22559e-05
2.84826e-05
2.44661e-05
-6.16948e-05
-0.000158637
-4.16979e-05
-6.56582e-08
-1.69137e-05
8.77364e-06
5.33133e-05
3.15625e-06
-1.07944e-05
2.47136e-05
-5.9657e-06
3.43233e-05
-2.73115e-05
-6.84685e-06
-1.89478e-06
-4.36431e-05
-0.000106618
-3.96516e-05
-2.96773e-05
-3.55596e-05
1.6422e-05
-5.91236e-05
-4.27186e-05
-1.06706e-06
-5.99981e-06
5.43525e-05
-3.54233e-05
-7.13803e-05
-7.13187e-05
4.01698e-05
1.15477e-05
-5.23515e-05
-1.11549e-05
9.64548e-06
3.18992e-05
-8.57749e-05
1.39617e-05
-6.138e-05
-7.7415e-06
-3.4863e-05
-1.67096e-05
-4.55664e-05
-6.96027e-05
1.70249e-05
-4.88097e-05
-2.07965e-05
1.59816e-05
-1.05532e-05
-2.35444e-05
-1.24412e-05
-3.31042e-05
-4.60123e-05
-1.33577e-05
-4.22454e-05
-8.32323e-06
-5.94477e-05
-7.82587e-05
8.69739e-06
-2.01946e-06
-8.3825e-05
1.0549e-05
-3.22352e-05
-4.36761e-05
-0.000117681
-8.72568e-06
-3.99576e-05
-3.83075e-05
-7.16746e-05
9.37062e-06
3.00054e-05
-1.70408e-05
-2.3999e-05
-1.85589e-06
-5.11222e-05
-2.02559e-05
-8.13483e-05
-6.4095e-05
3.62425e-05
-8.02707e-05
-7.56315e-06
2.37459e-05
2.21167e-05
-5.2781e-05
-2.42505e-06
3.60706e-05
-9.46567e-05
1.02374e-05
-2.21478e-05
3.97032e-05
-4.1351e-05
-2.55482e-05
-5.70039e-06
3.04061e-05
-6.90701e-05
-4.77675e-05
3.67505e-05
-4.79654e-06
2.05915e-06
-4.86561e-05
-0.000107547
-6.6024e-05
-2.66013e-05
-2.2479e-05
-9.33022e-06
-1.88573e-05
-0.00010145
6.32298e-06
3.69592e-05
4.61051e-06
-1.08492e-05
-2.36547e-05
-8.5084e-05
-3.90911e-05
4.811e-05
-6.97759e-06
-7.51886e-05
-6.46275e-05
-4.37896e-05
3.07559e-05
-5.53511e-05
1.83145e-06
-5.12168e-05
9.71674e-05
1.17973e-05
-4.1407e-05
-5.22414e-05
-4.83997e-05
-4.73993e-05
3.21248e-05
-3.50828e-05
-7.29871e-05
1.6985e-06
-2.53879e-05
-1.98882e-05
4.50609e-06
-1.73203e-05
7.05676e-05
5.70894e-05
-6.70663e-05
-3.48979e-05
-2.73386e-05
-7.02044e-05
-2.06063e-05
2.42674e-05
8.58861e-05
-8.70349e-05
6.9344e-06
-4.34534e-05
-3.62701e-05
6.90329e-05
3.75883e-05
-6.27588e-05
-4.99119e-06
2.55413e-05
-5.11212e-05
2.26243e-05
-1.34829e-05
-4.80206e-05
-1.98237e-05
3.05485e-06
3.73248e-05
3.4268e-05
-1.23489e-05
-2.31677e-05
-0.000132199
-1.66823e-07
-7.60634e-06
5.12581e-05
-7.35279e-06
-7.36326e-05
5.01692e-06
-3.30423e-05
-1.99117e-06
5.00252e-05
-7.79773e-06
-2.33897e-05
-8.48016e-06
1.05402e-06
-1.92298e-05
7.13234e-05
-5.15234e-05
7.82195e-06
3.11633e-05
6.53439e-05
-4.67901e-05
-2.90644e-05
-1.14909e-05
-2.49564e-05
-9.34284e-05
-2.04816e-05
3.51592e-05
4.8863e-05
3.64081e-05
-1.64531e-05
3.77696e-05
6.14579e-05
-4.75243e-05
4.48452e-05
4.40086e-05
9.82266e-06
-5.10862e-05
1.23071e-05
2.3444e-05
7.04305e-05
4.96681e-05
-3.57146e-05
2.25287e-05
5.27361e-06
-2.51166e-05
4.8009e-05
3.40396e-05
2.11629e-05
-2.89194e-05
-7.34255e-05
2.16748e-05
3.48729e-05
1.42131e-06
-4.63353e-05
1.81678e-06
-1.65706e-05
5.22437e-05
1.92712e-05
-4.25105e-05
-9.05944e-05
6.88434e-06
2.94286e-05
9.43232e-06
3.90756e-05
-4.01767e-05
2.79775e-05
-3.3071e-05
9.02759e-05
1.87056e-05
2.19358e-05
-2.38953e-05
3.89221e-05
7.95072e-05
-1.43016e-06
-1.07868e-05
-4.31229e-05
-5.63422e-05
3.65558e-05
5.69131e-06
-2.97658e-05
3.18503e-05
-3.75104e-05
-1.97688e-05
6.36958e-05
5.06417e-05
-4.80586e-05
-4.18767e-05
-9.31264e-06
-2.63558e-05
-1.33653e-05
5.09443e-05
7.4107e-05
-1.38804e-05
-5.52132e-05
-6.02384e-05
2.25473e-05
4.01651e-05
-3.56473e-05
4.6086e-05
6.0403e-05
1.00423e-05
-2.72845e-05
-6.84016e-05
1.03847e-05
-3.90657e-05
-6.67314e-05
1.89329e-05
-3.86647e-05
-7.26086e-05
1.55342e-05
3.44656e-05
-9.18203e-06
-2.52385e-05
3.49988e-05
6.71942e-05
-7.81415e-06
-2.34845e-05
1.90872e-05
-3.45567e-05
-3.24682e-06
3.17622e-05
-4.33624e-05
-4.44566e-05
-1.29165e-05
6.19072e-05
-1.54716e-05
-1.92426e-05
-9.33884e-07
1.07804e-05
-2.67864e-05
6.43287e-05
6.28526e-07
3.16114e-05
-3.45437e-05
-2.02106e-05
3.29814e-05
-8.92987e-06
-5.33779e-05
-6.58388e-05
-1.97742e-05
2.38325e-06
3.65479e-05
8.36805e-06
-1.87778e-06
1.48291e-05
-2.75737e-05
4.24773e-05
2.79524e-05
9.69106e-05
6.6583e-05
1.94261e-05
1.4567e-05
-1.36638e-05
5.90174e-05
5.77688e-05
-3.53307e-05
8.65558e-05
-1.88483e-05
-2.10224e-05
-5.39363e-05
1.12337e-05
-1.22989e-05
7.03164e-05
-1.07868e-05
6.14906e-06
5.77937e-05
3.47511e-05
-3.56394e-05
-5.85639e-06
4.38271e-05
2.99957e-05
1.48881e-05
3.09409e-06
-6.29968e-05
1.44138e-05
-9.34466e-05
4.10876e-05
-3.34156e-05
-7.29719e-05
6.78655e-06
-4.31375e-05
3.26069e-05
-5.40693e-05
-3.51892e-05
-7.38085e-06
-3.46783e-05
7.78178e-06
5.28587e-05
1.66991e-05
-1.61503e-06
7.61892e-05
-2.89595e-06
5.27897e-05
3.30993e-05
2.69052e-05
3.20118e-05
-4.14014e-05
-7.91214e-05
6.70413e-06
-3.71061e-05
3.38769e-07
3.12878e-05
2.55891e-05
4.62425e-05
-7.34429e-06
3.85573e-05
-1.82483e-05
8.60399e-05
-3.51759e-05
-2.42108e-05
-2.44783e-05
3.96881e-05
3.9636e-05
-5.59585e-06
-1.59818e-05
5.26493e-05
-3.12827e-05
-9.51311e-06
1.32089e-05
3.0308e-05
4.01442e-05
-6.21304e-05
6.55791e-06
-4.02805e-05
7.68162e-05
-2.30575e-05
2.42668e-06
-2.36238e-05
-7.65687e-06
1.05542e-06
-7.5846e-05
1.89055e-05
4.24923e-05
2.73273e-06
-4.68808e-05
-0.000111356
2.32972e-05
1.92819e-05
1.66986e-06
4.11413e-05
-1.26255e-05
3.11481e-06
-2.15394e-05
-7.41895e-05
3.57791e-05
1.81666e-05
-4.43209e-05
1.38059e-05
2.49421e-05
-1.40069e-05
-5.45265e-05
-1.59669e-05
4.84823e-05
-4.49945e-06
-0.000139603
5.79737e-05
3.08065e-05
0.000100899
-3.72753e-05
3.82719e-05
1.96721e-05
-2.19455e-05
-3.16997e-05
-3.15025e-05
5.79794e-05
8.84752e-05
-9.06759e-06
-5.99886e-05
9.21846e-06
8.46433e-06
-1.86265e-08
-2.0785e-05
-3.90371e-05
0.000130274
-3.43213e-05
-4.70515e-05
5.37115e-05
-2.79688e-06
2.82296e-06
-3.79188e-05
-6.05406e-05
4.75426e-05
4.84355e-05
-1.7537e-05
3.74631e-05
-5.19103e-05
4.18171e-05
3.39496e-05
-6.99726e-05
2.7366e-05
3.88061e-05
1.67809e-05
-5.26785e-05
6.28686e-05
-2.19624e-05
-4.31014e-05
-7.4032e-06
-2.66794e-05
4.25463e-05
3.65009e-06
2.7573e-05
-4.7388e-05
-6.4373e-06
3.03094e-05
-2.26301e-05
-8.19342e-05
-4.95823e-05
1.36239e-05
3.36372e-05
4.53519e-05
-3.78166e-05
6.72051e-05
-2.02062e-05
-6.23041e-05
4.74695e-05
4.62759e-05
1.24057e-05
3.82874e-05
2.15026e-05
5.87144e-05
-6.50004e-05
-4.25657e-05
-1.34124e-05
4.39055e-05
4.78697e-05
-2.23204e-05
-6.0518e-05
1.98314e-06
-2.43739e-06
-3.00119e-05
1.48921e-05
2.92042e-05
7.28872e-05
7.06641e-05
-3.58252e-05
-0.000140627
2.58458e-05
1.20339e-06
-2.88256e-05
-4.69699e-05
5.72429e-05
3.12582e-05
1.75564e-05
-0.000107817
-1.58475e-05
1.13321e-05
3.99516e-05
3.28138e-05
-4.30103e-05
3.20361e-05
3.74882e-05
-3.91935e-05
2.83309e-05
3.71946e-05
-1.3714e-05
3.56365e-05
-5.44165e-05
8.30452e-05
3.03241e-05
-1.94273e-05
-2.67294e-05
6.84278e-05
4.12179e-05
-2.91597e-05
3.35351e-05
3.92138e-05
3.68372e-05
-3.48367e-05
-2.81511e-05
1.41675e-05
3.52953e-05
-7.15663e-05
-2.16162e-05
4.60057e-05
3.64996e-05
2.31862e-05
-3.12363e-05
-7.13486e-05
2.25474e-05
-3.52721e-05
7.69852e-05
-4.1643e-05
-1.37864e-05
7.45137e-05
-5.40668e-05
4.00434e-06
-1.77847e-05
-5.58053e-05
2.01229e-05
5.95977e-06
5.05819e-05
6.31161e-05
-6.58252e-05
8.14191e-05
-4.32242e-05
-2.44334e-05
2.67205e-05
4.39456e-06
9.56794e-06
7.65466e-06
4.39025e-06
-4.22159e-05
2.17026e-05
1.01276e-05
-1.56354e-05
-7.88148e-05
-2.79718e-05
-7.33067e-06
2.6283e-05
6.22834e-06
2.38393e-05
-8.04104e-06
5.2616e-05
3.00959e-05
-3.07953e-05
-8.68591e-05
1.14744e-05
3.87332e-05
1.11604e-05
-2.85617e-05
-9.1251e-06
-2.48151e-06
2.21184e-05
-3.22994e-06
2.53442e-05
2.25466e-05
3.20964e-05
-2.08738e-05
-3.06289e-06
6.05546e-06
-3.41376e-06
3.49665e-05
-2.44869e-05
5.3474e-05
1.96629e-05
1.27889e-05
-1.15691e-05
2.92528e-05
2.87103e-06
3.39581e-05
-1.87166e-05
-2.88605e-06
-6.90413e-05
2.46686e-05
-5.03892e-06
-1.26836e-05
2.05983e-05
-2.63399e-05
-2.66207e-06
-3.02475e-05
-7.38937e-05
-1.16546e-05
0.000124287
-9.67176e-05
2.30564e-05
4.08881e-05
1.12084e-05
1.89694e-05
2.29748e-05
-6.504e-05
-1.85563e-05
-3.58941e-05
9.88785e-06
-2.25088e-05
-0.00011462
5.06443e-05
-0.000120174
-5.21546e-05
0.000129995
-2.85544e-05
-3.29313e-05
1.39815e-05
-3.0878e-06
-4.5842e-06
-6.87172e-05
5.00819e-07
2.5406e-05
-3.06806e-05
-4.83699e-05
-2.09832e-05
3.77459e-05
3.99074e-05
1.09907e-05
-3.37757e-05
2.43066e-05
4.91925e-05
4.58607e-05
-7.1392e-05
-6.57423e-05
-4.48677e-05
5.14659e-05
2.45089e-06
-1.54658e-06
-6.96708e-05
3.42028e-07
-1.04238e-05
6.894e-06
-2.29042e-05
-2.35508e-06
-3.06221e-05
3.2741e-05
-3.22668e-06
-1.03372e-05
-2.52565e-05
2.84619e-05
9.52233e-05
-3.02618e-05
3.21706e-05
4.43815e-05
-4.54088e-05
-0.000101102
-3.30778e-05
0.00011101
6.25441e-05
-5.28281e-05
-0.000107186
-1.18128e-05
6.8567e-05
3.46117e-05
-5.40469e-05
-5.21378e-05
4.75176e-05
-4.06374e-05
-0.000119435
6.12029e-05
-1.81565e-05
-3.11725e-05
0.000105493
-4.54731e-05
-9.29439e-05
-5.38453e-05
9.50531e-06
-5.54988e-05
1.67231e-05
4.28176e-06
-7.23694e-05
6.52496e-06
4.59248e-05
6.777e-06
-2.06684e-06
5.32218e-05
2.83378e-05
-3.75983e-05
-4.8551e-05
0.000104193
-1.6281e-05
-5.7281e-06
-2.96991e-05
-2.67243e-06
-4.58121e-05
8.22789e-06
-1.31109e-05
-4.38886e-05
-3.36709e-05
-5.4955e-05
4.80603e-05
-3.43898e-05
5.50934e-05
-3.26771e-05
-2.49941e-05
-9.60939e-06
3.26964e-05
-4.3438e-05
8.21743e-05
3.99002e-06
1.01072e-05
-2.64161e-05
-1.68616e-06
5.18316e-05
-5.05231e-05
7.65338e-05
-2.69967e-05
-2.84484e-05
5.25382e-06
1.91289e-05
5.75265e-05
-1.55072e-05
1.4148e-05
1.54797e-05
9.67546e-05
-2.60593e-05
2.79769e-06
-6.86488e-05
-4.36464e-06
5.35545e-06
-6.22938e-07
-1.12271e-05
2.76115e-05
-7.06451e-05
2.38859e-05
3.64643e-05
-5.8607e-06
-1.47319e-05
5.85357e-05
-1.46381e-06
5.05359e-07
-8.36409e-06
-6.68823e-05
-7.45838e-06
-5.66775e-05
5.49137e-05
-1.55679e-05
-6.51167e-05
1.93968e-05
-2.50088e-05
1.49554e-05
4.44495e-05
-8.87818e-06
-5.64917e-05
-7.07048e-05
-8.34151e-06
-2.963e-05
-2.15275e-06
-1.83218e-05
-1.89315e-06
-0.000102778
8.74826e-06
3.24823e-05
3.07963e-05
-0.000103662
-3.61558e-05
2.02423e-05
8.39118e-05
4.75254e-06
-1.31455e-05
3.19696e-05
7.15023e-07
-3.71367e-05
-7.51383e-05
-6.92123e-05
-2.21224e-06
-7.09705e-05
1.36718e-06
-4.37517e-05
5.21009e-05
-3.20333e-05
-2.11225e-05
9.38191e-06
-1.06078e-06
4.85114e-06
-2.59292e-05
5.72975e-05
-2.03843e-05
4.02208e-05
1.71225e-05
-4.36112e-05
4.79096e-06
-4.09901e-05
-3.4878e-07
2.30942e-05
-3.31623e-05
1.34479e-05
1.23588e-05
-2.6104e-05
-4.63808e-05
1.17685e-05
-4.40205e-05
0.000100773
4.16171e-05
5.95758e-05
5.7267e-06
3.63495e-06
3.72175e-05
-2.83866e-05
-2.65324e-05
-3.87033e-05
-3.32443e-05
-2.94519e-06
-4.83473e-06
-7.42387e-05
-9.21183e-05
-4.12929e-05
9.36043e-05
1.79689e-05
2.46139e-05
5.07897e-05
-3.90923e-05
-4.86935e-05
-6.07771e-05
2.91867e-05
-7.01523e-05
2.39771e-05
5.71008e-05
1.4381e-05
-8.54448e-05
6.48926e-05
5.64056e-06
1.15011e-05
-0.000120717
5.33743e-05
7.36075e-05
5.39154e-06
1.38737e-05
1.18415e-05
-9.65106e-06
3.66954e-05
-3.03431e-05
4.71817e-05
6.17248e-05
-4.68059e-06
-4.04327e-05
-2.98403e-05
4.8338e-06
-1.19186e-06
4.36946e-05
-1.84937e-06
-1.13772e-05
-1.70614e-05
7.82476e-05
-4.58397e-06
1.79143e-05
-3.62857e-05
-7.78633e-05
7.38348e-05
-9.19304e-05
-5.20784e-06
2.09282e-05
2.3063e-06
7.05889e-05
3.83817e-05
7.42101e-06
5.50138e-05
-1.0145e-05
4.60939e-05
-1.68376e-05
-5.88746e-05
-4.91894e-05
5.14218e-05
5.45881e-05
-1.98532e-05
5.8101e-05
3.02005e-05
1.38807e-05
2.24962e-05
6.25571e-05
6.90192e-06
-8.80085e-05
-1.34251e-05
-5.00749e-06
4.87e-05
5.99249e-05
6.30915e-05
1.42655e-06
2.1443e-05
-2.66379e-05
-9.90403e-06
-6.22044e-05
-1.60283e-05
3.25944e-05
-3.85357e-05
-1.90412e-05
5.31543e-05
-2.28167e-05
1.54101e-05
-4.23557e-05
-5.64614e-07
-5.11481e-05
-1.07915e-05
-0.000114607
2.06347e-05
1.91708e-05
7.28536e-05
2.73271e-05
-4.94907e-05
5.05779e-05
5.27874e-05
6.41993e-05
-7.9897e-06
4.43965e-05
-4.86514e-05
-2.58866e-05
-3.12887e-05
9.76644e-05
-4.46022e-05
-4.87093e-05
2.70447e-05
-5.04581e-05
1.36559e-05
-9.01836e-05
-0.000131355
6.04794e-05
5.67494e-05
-1.70096e-05
2.47726e-05
-9.10822e-06
5.16704e-05
-8.06582e-05
3.82909e-05
3.7834e-05
1.59072e-05
-7.97596e-06
-6.655e-06
3.57418e-05
3.13773e-05
-9.32623e-05
-4.72958e-05
-9.38084e-05
-4.97692e-05
6.84743e-05
-3.54389e-05
9.14535e-06
-3.66231e-05
3.87214e-05
1.69341e-05
4.47609e-05
-5.40495e-05
2.94937e-05
6.61319e-05
1.2241e-05
-6.64289e-05
1.134e-06
1.48169e-05
-1.36939e-05
6.08946e-05
-9.08854e-07
7.89308e-05
9.09728e-06
5.26158e-05
-9.66368e-05
3.41134e-05
6.60517e-06
-1.27822e-05
-4.43453e-05
-2.06706e-05
3.1509e-06
-9.30391e-07
-6.3061e-05
-0.000100799
-4.15873e-05
-9.15084e-05
-4.81866e-05
5.62922e-05
-1.52456e-05
-5.2291e-05
-2.41196e-05
-1.08294e-05
-4.57697e-05
-4.23092e-05
1.19058e-05
2.83606e-05
-1.41364e-05
-5.28247e-05
-6.13483e-05
1.77325e-05
1.07326e-05
-2.0828e-05
5.96307e-05
1.79105e-06
2.51202e-05
-2.36351e-05
5.88673e-05
3.18957e-05
4.76107e-05
-7.31891e-05
7.22469e-05
-0.000100921
-6.24114e-06
6.49311e-05
8.48924e-06
3.23068e-05
-3.30678e-06
-4.32204e-05
2.3786e-06
1.99964e-05
-1.27293e-05
9.59332e-06
3.614e-05
2.75428e-05
6.92136e-05
-2.72354e-06
-6.32235e-05
-6.14568e-06
-7.61042e-06
-1.02115e-05
4.45034e-05
5.2012e-06
2.67309e-05
-6.6295e-06
-4.79852e-06
-2.94803e-05
1.43551e-05
5.68992e-06
6.79198e-05
9.01194e-06
3.43912e-05
1.84248e-05
1.29042e-05
-4.46523e-05
3.45934e-05
3.36543e-05
1.9382e-06
-1.88097e-05
4.46874e-05
-5.23888e-05
6.75361e-05
7.74654e-05
6.37153e-06
8.13847e-05
-3.18108e-05
2.2067e-05
-1.73564e-05
-2.87804e-05
-6.86583e-05
1.19237e-05
2.47911e-05
1.23699e-05
-3.48676e-05
2.16773e-05
-2.20748e-05
-3.52459e-06
1.23347e-05
1.70944e-06
2.97127e-05
-6.88565e-05
-1.33739e-05
9.18957e-05
-3.43518e-05
1.47282e-05
-1.2363e-05
4.94567e-05
2.42071e-05
-4.44683e-05
5.05934e-05
0.000106778
9.66932e-05
6.52506e-05
8.90112e-07
-7.20704e-06
-1.14562e-05
6.66903e-05
-5.44777e-06
4.01794e-05
-2.33974e-05
4.17558e-05
-3.41274e-05
-2.13977e-05
6.28107e-06
-2.62638e-05
3.58215e-05
-8.93145e-05
4.69468e-05
-3.57552e-05
3.30247e-05
2.34648e-05
-9.97122e-05
2.21342e-05
3.5702e-05
-1.87464e-05
2.13257e-05
-6.78232e-05
2.71623e-05
-5.16978e-05
5.68139e-05
4.88439e-05
-1.74807e-05
3.8041e-05
4.54159e-05
1.17874e-05
-8.37992e-06
2.07496e-05
-2.05644e-05
5.28258e-05
-7.57055e-05
-4.26266e-05
-7.67293e-06
2.04983e-05
-1.54355e-05
-3.12331e-05
1.174e-05
6.21646e-05
4.88085e-05
4.33566e-06
-0.000127571
-5.02244e-05
-6.86673e-05
-6.60999e-05
3.09135e-05
7.61505e-05
-7.01351e-05
-7.03032e-06
9.28459e-06
4.82403e-05
3.84031e-06
8.47294e-06
-6.75761e-05
-1.85829e-05
1.21739e-05
-8.66782e-06
-3.19529e-05
-1.4283e-05
3.18396e-06
7.33044e-06
1.82405e-05
2.56517e-05
-6.78843e-05
-4.71435e-06
3.49287e-05
-5.05325e-05
1.07934e-05
-1.50148e-05
-1.63051e-05
-2.95393e-05
9.53891e-05
2.63905e-05
-1.76695e-05
-2.15019e-05
-1.27988e-05
8.03301e-06
-1.35811e-05
2.63907e-05
-7.18515e-06
-1.90847e-05
2.17276e-05
5.39325e-05
-9.03434e-05
5.79043e-05
-1.44774e-05
-1.46058e-05
-3.83228e-05
-4.54385e-05
2.6162e-05
5.74815e-05
2.0716e-05
1.80581e-05
2.61941e-05
-7.22171e-06
-2.65968e-05
2.38708e-05
-3.81795e-05
-3.29991e-05
2.86608e-05
4.19584e-06
5.3415e-05
-1.29025e-05
-4.54602e-06
9.10496e-05
1.63324e-05
1.69143e-05
-4.63276e-05
3.55747e-05
-3.91719e-05
2.29464e-05
1.72222e-05
3.08617e-06
6.80585e-05
6.72807e-05
-1.70233e-05
-7.54686e-06
4.55867e-05
-1.23875e-05
-6.61286e-06
0.000122596
3.26281e-05
1.82125e-05
2.49492e-05
-5.22537e-05
-2.22391e-05
-5.70166e-05
1.30443e-06
7.69063e-06
2.41783e-05
1.07714e-05
-5.20685e-05
1.76703e-05
6.44929e-05
-6.11886e-05
5.44075e-05
-4.4932e-05
-7.052e-05
6.2309e-06
3.27919e-05
4.70879e-05
1.3269e-06
1.32956e-05
-7.786e-05
-2.81825e-05
-6.8933e-06
0.000112602
3.68478e-05
-3.34256e-05
4.85627e-05
3.18345e-05
1.1489e-05
6.94895e-05
0.00013327
-7.38587e-05
-4.20368e-05
-1.68969e-05
2.04114e-05
8.13324e-06
-1.95543e-05
3.47549e-05
5.05911e-05
-6.30394e-05
-4.22691e-05
1.79631e-05
5.70347e-05
-6.66827e-07
2.83981e-05
-3.47794e-05
-8.23162e-05
-3.1693e-05
-5.51025e-05
-1.69486e-05
6.43997e-05
-5.57771e-05
5.25209e-05
-0.00011234
-7.10647e-05
-1.52234e-05
-1.60269e-05
-3.59303e-05
5.28325e-05
4.40276e-05
-4.7551e-06
-6.05786e-05
-2.03253e-05
1.72129e-05
2.40911e-05
-2.15005e-05
-3.80275e-05
1.84207e-05
-5.22969e-05
-1.4805e-05
-9.04261e-05
-1.86132e-05
-1.40984e-05
0.000121307
-2.547e-05
5.25209e-05
3.79473e-05
3.11937e-05
-3.85308e-05
-5.10248e-06
-4.49666e-05
2.62946e-05
1.12432e-05
-1.86057e-05
1.74432e-05
-3.76217e-05
8.71159e-06
-3.17957e-05
7.1465e-05
-7.47018e-05
0.000101809
5.19648e-05
3.18051e-05
1.94149e-05
4.63659e-05
-3.00468e-06
1.62399e-05
7.99986e-05
3.6757e-06
-1.37996e-05
-5.21082e-05
-5.62184e-05
2.68223e-05
-3.78018e-05
-4.78227e-05
2.88635e-05
-2.68994e-05
-1.16548e-05
-5.028e-05
3.10761e-05
-2.00589e-05
3.81089e-05
-8.7174e-05
-4.69045e-05
1.67188e-05
4.92434e-05
9.12836e-06
1.42609e-06
-6.69413e-05
-7.27302e-05
-1.43611e-05
-9.74489e-06
-1.5698e-05
2.6738e-05
-9.21225e-05
-5.88648e-05
-1.25885e-05
5.10602e-05
-8.97489e-05
7.86013e-05
1.309e-05
1.5168e-05
-0.000114672
-4.19714e-05
1.06479e-05
8.84155e-05
-6.75267e-06
-6.93055e-06
1.08079e-05
-9.15197e-05
-1.49589e-05
1.07788e-05
5.18082e-05
-3.28287e-05
4.25937e-05
9.43046e-06
7.85338e-07
4.0361e-05
-3.83507e-06
2.66731e-05
-2.2187e-05
6.11064e-07
2.16393e-06
1.83086e-05
-2.01631e-05
-7.52348e-05
-8.20152e-05
-4.08831e-05
3.06887e-05
3.11452e-05
-1.76035e-05
-1.14896e-05
3.87498e-05
9.27434e-06
1.17531e-05
-4.44872e-05
-5.2748e-05
-4.26527e-05
9.60722e-05
-3.91068e-05
-6.17563e-05
-4.51253e-05
4.72029e-06
-4.1578e-05
-1.74774e-06
2.5766e-05
4.8114e-05
-3.50766e-05
2.89145e-05
3.42634e-05
2.19493e-05
-2.03147e-05
-2.84293e-05
2.95845e-05
6.2325e-05
1.81493e-05
-1.77094e-05
-4.22895e-05
-3.51819e-06
6.32226e-05
3.54671e-06
7.63219e-06
-5.29399e-06
1.01698e-05
2.74982e-05
2.91361e-05
-2.60759e-05
-5.97398e-05
8.67879e-05
3.29312e-05
-1.4573e-05
-1.42368e-05
5.729e-05
3.84322e-06
9.81889e-05
0.000121367
-2.85937e-05
2.49981e-05
7.87177e-06
-1.86717e-05
-1.70155e-05
-7.32373e-05
0.000112081
-1.25977e-05
-6.01779e-05
7.86269e-06
3.08838e-05
9.78401e-06
7.84127e-06
1.71361e-05
4.8778e-08
-2.67229e-05
-2.5681e-05
-4.13372e-05
-4.55835e-05
-1.76233e-05
-7.7656e-06
-4.82691e-05
7.13976e-05
1.64245e-05
3.0174e-05
-3.19597e-05
1.39843e-05
-1.39404e-05
-1.55889e-05
4.4764e-06
-1.65858e-05
8.27656e-05
5.56019e-05
5.6728e-06
3.54118e-05
2.86242e-06
-1.63059e-05
2.07498e-05
9.63209e-06
-1.45016e-05
-4.88878e-05
-4.07482e-05
-9.69181e-06
4.12576e-05
-2.15805e-05
-3.41524e-05
5.64966e-05
-1.37321e-05
-5.04197e-05
3.84741e-05
-2.33632e-05
-1.19582e-06
-5.94474e-05
5.9522e-06
6.40081e-05
-7.39722e-05
-2.23714e-05
-4.28851e-06
-7.43159e-05
-1.58101e-05
5.60062e-05
-2.4102e-05
5.20144e-05
4.58723e-05
-3.16426e-05
0.000122277
2.89971e-05
1.20699e-05
-2.74088e-05
-3.44682e-05
-3.20203e-05
5.98457e-05
4.27905e-05
-2.54266e-05
-1.62858e-05
4.25265e-05
4.55985e-05
-7.08051e-05
-4.53842e-05
-1.75915e-05
6.00134e-05
3.70807e-05
4.36974e-05
-7.64546e-06
2.1755e-05
1.48433e-05
1.4781e-05
3.49522e-05
1.44986e-05
-7.1735e-05
5.90791e-05
3.93529e-05
-1.62122e-05
4.7453e-05
-1.84561e-05
-3.84233e-05
8.46094e-05
5.78982e-05
5.2993e-05
-2.8294e-05
-1.40266e-05
-3.38163e-06
6.56869e-05
1.70164e-05
1.81667e-05
-1.45179e-05
-3.22158e-05
8.30134e-06
5.70645e-05
3.72088e-05
6.89623e-05
3.92864e-05
3.0786e-05
-1.59342e-05
4.175e-05
8.47341e-06
-3.21826e-05
-1.07547e-05
-1.45925e-05
5.39318e-05
1.21887e-05
2.1124e-05
-2.64747e-05
1.1299e-05
-2.39077e-05
-1.44517e-05
1.09985e-05
-7.73591e-06
4.69037e-06
1.68594e-05
6.67056e-05
1.5799e-05
-0.000107579
-8.24989e-05
6.52345e-06
-5.85075e-05
5.17322e-05
1.84866e-05
1.66772e-05
-7.07679e-05
5.68526e-06
-1.86226e-05
-4.33433e-05
5.83279e-05
-4.15356e-05
-7.76745e-05
-1.33205e-05
-3.74749e-05
-1.09978e-06
5.06302e-05
3.43448e-05
5.21397e-05
2.95318e-05
4.71442e-05
-2.02372e-05
0.000134813
5.51655e-05
-3.82704e-05
-1.12215e-05
0.000111733
1.1283e-06
-1.38339e-05
-2.07326e-05
-1.05335e-05
5.7508e-06
2.51081e-05
-6.47178e-05
1.22248e-06
0.00011825
2.02323e-05
-6.96788e-05
-8.3458e-05
9.06889e-05
4.29546e-05
-6.09938e-05
-2.33646e-06
4.5246e-06
-2.48613e-05
-7.49842e-05
-6.3011e-06
3.39795e-05
6.28866e-05
-2.65846e-06
-2.97545e-05
-6.67729e-05
-1.08314e-05
7.42311e-06
3.03182e-05
-1.26917e-05
1.26482e-05
-3.24745e-05
-1.54033e-05
4.6596e-05
-6.06407e-07
-7.33227e-05
-3.61168e-05
3.19342e-05
5.07118e-05
5.52052e-05
-3.86606e-05
-2.71014e-05
-1.73179e-06
4.00438e-05
-1.28826e-05
1.15241e-05
2.75391e-05
1.51003e-05
2.02362e-05
3.27815e-05
-0.000103584
-2.37202e-05
5.62997e-05
-3.56052e-05
-8.5642e-05
0.000101617
-2.90698e-05
2.15789e-05
-5.19503e-05
6.29365e-06
-5.95589e-05
3.80189e-06
-4.0116e-05
2.21791e-05
-9.73756e-06
6.3583e-05
-2.76124e-05
-2.54387e-05
9.06726e-05
-5.55888e-05
-3.51439e-05
1.47806e-05
-2.30942e-05
3.4685e-05
-4.10143e-05
-1.09316e-05
2.98412e-05
3.45649e-05
-4.78458e-05
-5.78741e-05
-3.72988e-05
3.58612e-05
-1.02358e-05
-1.76757e-05
3.83474e-05
4.55021e-06
-3.0726e-05
-6.3175e-05
6.19132e-06
-5.68882e-05
0.000120349
-0.000117729
-6.80871e-05
1.0187e-05
-1.02159e-05
2.82162e-05
-1.96025e-05
-6.25604e-06
3.50745e-05
9.93139e-06
-5.96481e-05
5.40579e-05
-2.97576e-05
-7.255e-07
-9.39099e-06
-2.64798e-05
5.89006e-05
9.35844e-05
7.95014e-05
-1.68919e-05
-6.82934e-05
-7.7704e-05
4.75617e-05
-1.31782e-06
1.17447e-05
5.16311e-05
-6.31507e-05
2.21429e-05
3.4573e-05
-3.89623e-05
4.92728e-05
9.85328e-06
-2.73692e-05
-7.18014e-05
-2.20735e-06
9.41276e-06
5.68596e-05
-2.01401e-05
-8.62195e-06
7.09004e-06
9.57632e-07
-2.91979e-05
-3.6772e-05
9.87086e-07
-7.08317e-06
-7.77078e-05
4.07126e-05
2.2804e-05
-2.33536e-05
-2.82731e-05
6.35616e-06
-3.10609e-05
-2.37786e-05
5.87651e-05
3.77754e-05
-8.88543e-05
1.88742e-05
2.8215e-05
2.42069e-05
-1.97265e-05
3.1372e-05
2.67726e-05
-2.78917e-05
-1.14408e-05
4.39794e-05
-1.84723e-05
6.28957e-06
-9.4166e-06
3.67076e-05
-1.65391e-05
-2.21909e-05
-3.26341e-05
2.11541e-05
-9.05282e-05
-2.25264e-05
7.17794e-06
-1.67803e-05
-5.1295e-05
-4.15264e-05
3.02573e-05
1.8758e-05
1.34516e-05
6.79976e-05
0.000103677
-2.68696e-05
-5.62218e-05
-7.36862e-06
-8.72882e-06
-8.22067e-06
-0.000119192
3.07664e-05
9.9708e-05
7.93553e-05
2.35238e-05
2.89548e-06
3.23566e-05
6.61891e-06
-1.27404e-05
-1.12372e-05
3.50177e-06
6.08948e-05
-6.73509e-06
5.99331e-05
-9.10868e-06
-4.93438e-05
-1.25014e-05
-1.7921e-05
3.41786e-05
-3.37979e-05
7.39563e-06
5.94538e-05
0.000102923
1.58972e-05
2.07452e-06
6.60839e-05
-5.49521e-05
-6.42204e-05
4.83624e-06
5.86058e-05
-3.53627e-05
-0.000113619
-3.2186e-05
8.25222e-06
3.03732e-05
4.09491e-06
1.2588e-05
-2.57904e-05
4.03018e-06
-1.99424e-05
-0.000115459
-8.30309e-06
2.3432e-05
1.67686e-05
-9.89973e-06
-1.77936e-05
3.41061e-05
5.38379e-05
-8.89646e-07
-3.26855e-05
-1.44824e-05
1.08393e-05
2.86298e-05
1.41953e-05
-1.1322e-05
4.36341e-05
-9.70054e-06
4.36595e-05
-6.26047e-06
-6.49593e-05
8.334e-05
7.37398e-06
-2.33592e-05
-5.29964e-05
8.21939e-06
-7.67078e-05
-5.47343e-05
1.69986e-05
-2.35282e-05
6.93037e-05
-5.89244e-05
-1.58965e-05
-3.79677e-06
-4.36555e-05
1.74996e-06
6.90878e-06
-1.56345e-05
-1.26815e-05
-6.31355e-06
-2.87474e-05
6.35842e-05
-1.27361e-05
2.98875e-05
-1.94591e-05
0.000106661
-6.87315e-05
2.64263e-06
7.97831e-05
-7.28982e-05
-2.11623e-05
-1.82877e-06
-5.65441e-06
-3.07187e-05
-1.66474e-07
6.13107e-05
-4.53601e-05
-3.93693e-06
2.74235e-05
5.10013e-05
6.30179e-06
2.15231e-05
-5.93152e-05
-4.52381e-05
-4.56918e-05
-4.39747e-05
-2.38911e-05
-5.03428e-05
-2.24273e-05
-6.28908e-05
1.11945e-05
0.000117078
1.08848e-05
1.60374e-06
7.11624e-06
-1.24833e-05
-9.79604e-05
1.17281e-05
-2.4335e-05
-6.52873e-05
-4.57346e-05
9.77498e-05
-2.84512e-05
2.46853e-05
2.89713e-05
-3.39511e-05
9.19257e-05
-5.06381e-05
-3.13993e-05
4.17465e-07
2.26259e-05
5.23934e-05
-4.63512e-05
3.01946e-06
-7.25868e-05
3.62424e-05
4.53796e-05
5.10275e-05
4.96125e-05
1.14618e-05
6.31483e-06
1.38575e-05
1.41491e-06
1.35629e-05
-5.94301e-05
-5.26088e-05
-3.14449e-05
3.68985e-05
-1.13051e-06
4.39445e-06
1.65976e-05
1.01094e-05
-4.56737e-05
-5.67072e-05
-2.16056e-05
3.75416e-06
3.02104e-05
2.47175e-05
-3.70555e-05
-4.68161e-05
-8.03269e-05
-3.89206e-05
8.46452e-05
4.35201e-05
1.98969e-05
-8.17562e-06
-6.95779e-06
-5.38761e-05
3.58439e-05
-6.18515e-05
7.90426e-05
-1.59475e-05
-3.99179e-05
-6.26177e-05
3.51218e-05
5.15331e-05
1.97045e-06
-3.47081e-06
-9.94955e-06
5.45725e-05
-4.35943e-05
-3.20035e-05
3.58501e-05
-2.33697e-05
-7.19377e-06
3.16268e-05
-2.3679e-05
4.79089e-05
6.11598e-05
-1.50183e-05
5.83357e-05
-1.60114e-05
-5.55507e-05
-4.11181e-05
3.92951e-05
8.73666e-05
-9.01811e-06
2.39066e-05
5.31232e-05
-2.11829e-06
3.75919e-05
-6.11139e-05
-5.37819e-05
4.75651e-05
-2.97432e-05
-7.41601e-05
-1.3014e-05
3.82913e-06
-4.95901e-05
-1.00627e-05
1.48062e-05
3.36731e-06
-4.77562e-05
-3.26612e-05
4.7799e-06
4.40958e-05
4.04308e-05
-4.65774e-05
-4.65792e-05
9.95398e-06
6.58098e-05
1.77755e-05
-1.76016e-05
-0.000102062
4.74708e-05
-2.01669e-05
-7.77608e-06
-8.79914e-06
4.50329e-05
-5.59189e-06
-5.70053e-05
-1.9311e-05
-3.39665e-05
4.75906e-05
2.1651e-05
-2.22098e-05
-2.47788e-05
-2.54151e-05
-5.89085e-06
-1.15659e-05
-4.13185e-05
-4.02364e-05
1.20583e-06
-4.48262e-05
2.04253e-05
3.38105e-06
-2.82916e-05
3.01639e-05
9.34838e-06
-6.71307e-05
-4.0574e-05
7.09337e-05
-3.39551e-05
-2.67508e-05
2.17734e-05
1.56361e-05
1.44396e-05
-8.90181e-06
-1.1994e-05
1.44326e-05
8.70281e-05
-9.6974e-07
1.24227e-05
-5.59278e-05
-1.92783e-05
3.90811e-05
3.06987e-06
-4.05499e-05
7.56583e-06
6.72849e-05
3.94989e-05
-7.47542e-05
-3.48644e-05
2.46885e-05
-5.16151e-05
3.76708e-06
-4.08544e-05
-1.83191e-05
8.32831e-05
-3.53502e-05
-3.56365e-05
-9.10147e-06
-2.37036e-05
-7.61584e-05
-4.31733e-05
-3.44524e-05
3.03321e-05
-5.93209e-05
-4.43419e-05
-1.38484e-05
2.80138e-05
4.4345e-05
7.11239e-06
-4.18862e-07
-3.3796e-05
5.63178e-05
4.62118e-05
-7.51622e-05
0.000106831
-4.85464e-05
-1.38166e-05
-8.4145e-07
-1.47605e-05