# vtk DataFile Version 1.0
Net Charge Density
ASCII
DATASET STRUCTURED_POINTS
DIMENSIONS 256 128 1
ORIGIN 0 0 0
SPACING 0.15625 0.15625 1
POINT_DATA 32768
SCALARS rhonet float
LOOKUP_TABLE default
-3.89596e-06
-9.51274e-05
0.000144792
9.63219e-05
3.56839e-05
0.000120451
-0.000118445
9.1858e-05
0.000154216
2.2899e-05
-3.75605e-05
0.000108726
0.00010382
7.94453e-05
0.000109346
4.99603e-05
8.77433e-05
0.000140236
4.05879e-05
-6.79097e-05
-6.40668e-06
0.00014186
0.000144767
4.77824e-05
3.7268e-05
2.07429e-05
7.74219e-05
9.05888e-05
-1.35223e-05
-7.27423e-05
5.23026e-05
3.97234e-05
4.36687e-05
6.90083e-05
1.24414e-05
0.000171713
1.6807e-05
7.28723e-05
7.73576e-05
-5.53043e-06
2.2932e-05
6.83218e-06
0.000136404
9.39809e-05
2.09389e-05
1.8683e-05
-3.16135e-05
6.95545e-05
0.000116214
7.8872e-05
-1.20082e-05
2.49784e-05
8.34423e-05
0.000148995
3.55951e-05
1.75044e-05
0.000151011
-5.17468e-05
5.67792e-06
7.16959e-05
5.02795e-05
6.06019e-05
7.16816e-06
8.01802e-05
8.22489e-05
-8.0383e-05
4.41817e-05
0.000136175
4.09954e-05
4.8283e-05
7.9234e-05
3.67108e-05
-2.69162e-05
4.96674e-05
-1.15018e-07
5.1155e-05
4.20861e-05
-3.8308e-05
9.21625e-05
0.000106615
8.71844e-05
2.54083e-05
7.49619e-05
0.000101106
4.54688e-05
-4.48036e-06
-1.66914e-05
6.70487e-05
0.000119669
-2.34878e-05
9.00028e-05
-1.47956e-05
-3.90527e-05
-6.21472e-06
-8.99172e-05
5.22719e-05
0.000157961
2.40976e-05
9.16884e-05
-2.49444e-05
0.000157723
9.09193e-05
-3.16906e-06
9.47253e-05
3.90381e-05
0.00013097
-2.5786e-07
-6.85494e-05
2.66288e-06
7.39997e-05
0.00013342
5.79277e-05
2.02986e-05
3.3116e-05
8.04211e-05
4.36594e-05
1.22656e-05
7.49694e-05
5.09606e-05
4.32276e-05
-3.98803e-05
-3.45637e-05
4.04445e-05
2.44901e-05
0.00011572
6.60872e-05
1.82551e-05
8.13091e-05
1.99638e-05
-1.88102e-05
0.000119796
9.2616e-05
-2.24367e-06
3.77489e-05
2.03247e-05
6.79621e-06
4.46091e-05
-3.19163e-05
4.68965e-05
-1.1503e-05
-4.98407e-05
2.32955e-05
2.09622e-05
0.000160761
9.88226e-05
2.06358e-06
0.000137836
1.1524e-05
-3.11242e-05
0.000132418
1.78268e-05
2.91315e-05
0.000108428
-8.34581e-06
3.45045e-05
4.323e-05
5.74626e-06
3.42713e-05
-5.27652e-06
1.75424e-05
7.67779e-05
2.50088e-05
0.000112709
-2.20694e-05
3.25857e-05
2.55229e-05
5.84619e-05
-6.12721e-05
0.000105448
0.000137296
2.50293e-05
4.32242e-05
7.45819e-05
0.000111579
-2.02681e-05
-8.13289e-06
8.72932e-05
-8.23226e-05
1.15581e-05
3.31803e-05
8.87692e-05
-7.06e-05
-3.18107e-05
5.65359e-06
1.04989e-05
7.98536e-05
4.14201e-05
7.20925e-05
0.000102554
7.4686e-05
2.48846e-05
0.000198125
8.16126e-05
-6.56993e-05
6.242e-05
0.000201229
4.75225e-05
8.32755e-05
7.86675e-05
-1.6309e-05
5.95985e-05
0.00014917
4.39016e-05
3.83351e-05
-1.00756e-05
6.97711e-05
-5.98879e-05
5.34237e-05
6.86803e-05
8.57909e-05
6.81023e-05
0.000137439
0.000106097
-2.40526e-05
0.000111081
-0.000131281
0.000102691
9.9094e-05
-5.28728e-05
-3.79203e-05
8.69748e-05
0.000114877
0.000176991
3.40517e-05
7.95294e-05
5.67449e-05
-3.69134e-05
-1.51403e-05
8.69031e-05
6.86067e-05
6.22845e-06
4.16546e-05
2.36377e-05
2.60693e-05
0.000121307
-3.55704e-05
-2.0577e-05
2.75006e-05
5.94516e-05
8.98005e-06
1.84992e-05
8.6694e-05
-5.82662e-05
-3.0722e-07
2.65904e-05
-1.44094e-05
-2.21961e-05
-3.95463e-05
0.000128655
-4.29596e-06
2.10486e-05
-3.85131e-05
0.000102293
2.1438e-05
2.40525e-05
4.18614e-05
-0.0001049
2.4705e-05
-6.30289e-05
-2.51192e-05
-2.38868e-05
5.12262e-05
-2.60447e-05
-7.57639e-05
4.98929e-05
-6.60461e-05
-4.28996e-05
2.33406e-05
-5.99086e-05
-8.02726e-05
3.00247e-06
-4.24264e-05
4.6622e-06
1.08911e-05
-2.1575e-05
-4.06045e-06
-5.82077e-05
-6.74941e-05
-0.000106138
-1.79198e-05
-2.00459e-05
-5.72718e-05
-2.52761e-05
7.73009e-06
-3.07406e-05
-8.53869e-05
-3.53891e-05
-8.36083e-06
2.74425e-05
-7.95685e-05
-6.67482e-05
2.31337e-05
-0.000103178
-3.37887e-05
1.98343e-05
-8.20335e-05
-5.15863e-05
-4.38414e-05
8.67294e-06
3.55996e-05
-2.47122e-05
4.87431e-06
-0.000112385
-3.15174e-05
3.88795e-05
-3.39414e-05
-6.56127e-05
-4.11932e-05
-3.17376e-05
2.98233e-05
-2.8532e-05
-3.5457e-05
-2.34867e-05
-0.000116111
1.48104e-05
-3.37933e-05
4.56304e-05
-5.12691e-05
-5.72853e-05
-3.73456e-05
-3.01473e-05
-6.05664e-05
-1.00285e-05
-7.96344e-05
-0.000109192
1.21044e-05
-4.39817e-05
9.01753e-06
-1.84355e-05
1.72422e-05
-5.13536e-05
-1.04337e-05
4.76097e-05
-2.54937e-05
5.74084e-05
2.16067e-07
-3.24128e-05
-5.04447e-05
-8.22557e-05
2.84823e-05
2.44661e-05
-6.16946e-05
-0.000158637
-4.16981e-05
-6.58911e-08
-1.69139e-05
8.77376e-06
5.3313e-05
3.1566e-06
-1.0794e-05
2.4714e-05
-5.96559e-06
3.4323e-05
-2.73113e-05
-6.84697e-06
-1.89454e-06
-4.36439e-05
-0.000106618
-3.96515e-05
-2.96767e-05
-3.556e-05
1.64226e-05
-5.9124e-05
-4.27188e-05
-1.06718e-06
-6.00051e-06
5.43521e-05
-3.54241e-05
-7.13798e-05
-7.13184e-05
4.017e-05
1.15472e-05
-5.23515e-05
-1.11547e-05
9.64501e-06
3.18993e-05
-8.57753e-05
1.39617e-05
-6.13794e-05
-7.74162e-06
-3.48638e-05
-1.671e-05
-4.55657e-05
-6.96032e-05
1.70242e-05
-4.881e-05
-2.07969e-05
1.59815e-05
-1.0553e-05
-2.35448e-05
-1.2441e-05
-3.31046e-05
-4.60122e-05
-1.33577e-05
-4.22454e-05
-8.32253e-06
-5.94477e-05
-7.82581e-05
8.69716e-06
-2.01957e-06
-8.38251e-05
1.05492e-05
-3.22358e-05
-4.36762e-05
-0.000117681
-8.72579e-06
-3.99579e-05
-3.83075e-05
-7.16752e-05
9.37073e-06
3.00049e-05
-1.70406e-05
-2.39991e-05
-1.85554e-06
-5.11224e-05
-2.02556e-05
-8.13482e-05
-6.40948e-05
3.62425e-05
-8.02709e-05
-7.56315e-06
2.37459e-05
2.21166e-05
-5.27813e-05
-2.42493e-06
3.60706e-05
-9.46565e-05
1.02373e-05
-2.21481e-05
3.97032e-05
-4.13511e-05
-2.5548e-05
-5.70109e-06
3.04059e-05
-6.90699e-05
-4.7768e-05
3.67509e-05
-4.79689e-06
2.0595e-06
-4.86567e-05
-0.000107547
-6.60245e-05
-2.66009e-05
-2.24793e-05
-9.33022e-06
-1.88574e-05
-0.00010145
6.32298e-06
3.69598e-05
4.61075e-06
-1.0849e-05
-2.36545e-05
-8.50843e-05
-3.90912e-05
4.81098e-05
-6.97712e-06
-7.51887e-05
-6.46277e-05
-4.37901e-05
3.07562e-05
-5.53513e-05
1.83121e-06
-5.12168e-05
9.71671e-05
1.17974e-05
-4.14071e-05
-5.2241e-05
-4.83998e-05
-4.73998e-05
3.21255e-05
-3.50828e-05
-7.29868e-05
1.69745e-06
-2.53882e-05
-1.98884e-05
4.50551e-06
-1.732e-05
7.05675e-05
5.70895e-05
-6.70666e-05
-3.48978e-05
-2.73385e-05
-7.02046e-05
-2.06063e-05
2.42677e-05
8.58866e-05
-8.70347e-05
6.93474e-06
-4.34536e-05
-3.62702e-05
6.90325e-05
3.75881e-05
-6.2758e-05
-4.99177e-06
2.55413e-05
-5.11217e-05
2.26246e-05
-1.34832e-05
-4.80207e-05
-1.98234e-05
3.05497e-06
3.73245e-05
3.42679e-05
-1.23483e-05
-2.31679e-05
-0.000132199
-1.6694e-07
-7.60646e-06
5.12579e-05
-7.35302e-06
-7.3632e-05
5.0168e-06
-3.30425e-05
-1.99117e-06
5.00254e-05
-7.79785e-06
-2.33892e-05
-8.47969e-06
1.05426e-06
-1.92298e-05
7.13235e-05
-5.15231e-05
7.82241e-06
3.11631e-05
6.53442e-05
-4.67902e-05
-2.90638e-05
-1.14903e-05
-2.49565e-05
-9.34281e-05
-2.0482e-05
3.51593e-05
4.8863e-05
3.64081e-05
-1.6453e-05
3.777e-05
6.1458e-05
-4.75241e-05
4.48453e-05
4.40088e-05
9.82278e-06
-5.10867e-05
1.23071e-05
2.34434e-05
7.04302e-05
4.96682e-05
-3.57146e-05
2.25282e-05
5.27431e-06
-2.51165e-05
4.80091e-05
3.40398e-05
2.11627e-05
-2.89199e-05
-7.34258e-05
2.16747e-05
3.48734e-05
1.4212e-06
-4.63354e-05
1.81771e-06
-1.65714e-05
5.22442e-05
1.92712e-05
-4.25101e-05
-9.05944e-05
6.88434e-06
2.94282e-05
9.43313e-06
3.90757e-05
-4.01768e-05
2.79779e-05
-3.30701e-05
9.02761e-05
1.87054e-05
2.19357e-05
-2.38941e-05
3.89218e-05
7.95065e-05
-1.43005e-06
-1.07867e-05
-4.3123e-05
-5.6342e-05
3.65556e-05
5.6912e-06
-2.97657e-05
3.18503e-05
-3.75101e-05
-1.97685e-05
6.36955e-05
5.06415e-05
-4.80589e-05
-4.18772e-05
-9.31241e-06
-2.6356e-05
-1.33661e-05
5.09446e-05
7.41071e-05
-1.38807e-05
-5.52128e-05
-6.02386e-05
2.25467e-05
4.01653e-05
-3.56468e-05
4.60861e-05
6.04028e-05
1.00422e-05
-2.72852e-05
-6.84022e-05
1.03845e-05
-3.90664e-05
-6.67311e-05
1.89326e-05
-3.86647e-05
-7.26082e-05
1.55349e-05
3.44659e-05
-9.18168e-06
-2.52391e-05
3.49989e-05
6.71941e-05
-7.81415e-06
-2.34852e-05
1.90872e-05
-3.45566e-05
-3.24612e-06
3.17618e-05
-4.3362e-05
-4.44566e-05
-1.29166e-05
6.19072e-05
-1.54723e-05
-1.9243e-05
-9.34349e-07
1.07802e-05
-2.67865e-05
6.43285e-05
6.28177e-07
3.16112e-05
-3.45439e-05
-2.02109e-05
3.29813e-05
-8.92952e-06
-5.33776e-05
-6.58382e-05
-1.97743e-05
2.38291e-06
3.65473e-05
8.36793e-06
-1.87813e-06
1.4829e-05
-2.75736e-05
4.24775e-05
2.79526e-05
9.69109e-05
6.65833e-05
1.94267e-05
1.4567e-05
-1.36637e-05
5.90173e-05
5.77696e-05
-3.53307e-05
8.65562e-05
-1.88481e-05
-2.1022e-05
-5.39368e-05
1.12338e-05
-1.22988e-05
7.03166e-05
-1.07874e-05
6.14894e-06
5.77932e-05
3.47518e-05
-3.56393e-05
-5.85592e-06
4.38266e-05
2.99956e-05
1.48881e-05
3.09374e-06
-6.29966e-05
1.4414e-05
-9.34468e-05
4.10881e-05
-3.34157e-05
-7.29717e-05
6.78666e-06
-4.31379e-05
3.26065e-05
-5.40697e-05
-3.51889e-05
-7.3805e-06
-3.46784e-05
7.7812e-06
5.28588e-05
1.66993e-05
-1.6148e-06
7.61891e-05
-2.89688e-06
5.27897e-05
3.30996e-05
2.69052e-05
3.20117e-05
-4.14017e-05
-7.91217e-05
6.70389e-06
-3.71058e-05
3.38419e-07
3.12878e-05
2.55893e-05
4.62427e-05
-7.34499e-06
3.85575e-05
-1.82482e-05
8.60397e-05
-3.51756e-05
-2.42111e-05
-2.44791e-05
3.9688e-05
3.96369e-05
-5.59597e-06
-1.59824e-05
5.26488e-05
-3.12827e-05
-9.51334e-06
1.32084e-05
3.03083e-05
4.01442e-05
-6.213e-05
6.55756e-06
-4.02802e-05
7.68165e-05
-2.30571e-05
2.42749e-06
-2.36236e-05
-7.65733e-06
1.05542e-06
-7.58459e-05
1.89054e-05
4.24926e-05
2.7332e-06
-4.68808e-05
-0.000111356
2.32973e-05
1.92823e-05
1.66986e-06
4.11416e-05
-1.26262e-05
3.11492e-06
-2.15395e-05
-7.4189e-05
3.57798e-05
1.81665e-05
-4.43211e-05
1.38063e-05
2.49416e-05
-1.40065e-05
-5.45261e-05
-1.59674e-05
4.8483e-05
-4.49945e-06
-0.000139603
5.79741e-05
3.08066e-05
0.000100899
-3.72753e-05
3.8272e-05
1.96723e-05
-2.19457e-05
-3.16997e-05
-3.15025e-05
5.79791e-05
8.84748e-05
-9.06747e-06
-5.99881e-05
9.21846e-06
8.46386e-06
-1.83936e-08
-2.07849e-05
-3.90375e-05
0.000130274
-3.43213e-05
-4.70512e-05
5.37116e-05
-2.79676e-06
2.82284e-06
-3.79189e-05
-6.05416e-05
4.7542e-05
4.84359e-05
-1.75379e-05
3.74634e-05
-5.19097e-05
4.18175e-05
3.39493e-05
-6.99729e-05
2.7366e-05
3.88058e-05
1.67809e-05
-5.26786e-05
6.28689e-05
-2.1962e-05
-4.31021e-05
-7.40285e-06
-2.66789e-05
4.25469e-05
3.64974e-06
2.75732e-05
-4.73878e-05
-6.43672e-06
3.03092e-05
-2.263e-05
-8.19345e-05
-4.95816e-05
1.36236e-05
3.36367e-05
4.53524e-05
-3.78171e-05
6.72047e-05
-2.02055e-05
-6.23041e-05
4.74699e-05
4.6276e-05
1.2405e-05
3.82878e-05
2.15028e-05
5.87144e-05
-6.50003e-05
-4.25666e-05
-1.3412e-05
4.39063e-05
4.787e-05
-2.23207e-05
-6.05177e-05
1.9829e-06
-2.43727e-06
-3.00119e-05
1.48921e-05
2.92042e-05
7.28876e-05
7.06634e-05
-3.58255e-05
-0.000140627
2.58458e-05
1.20327e-06
-2.88259e-05
-4.69694e-05
5.72426e-05
3.12587e-05
1.75561e-05
-0.000107817
-1.58479e-05
1.13326e-05
3.99521e-05
3.28139e-05
-4.30106e-05
3.20362e-05
3.74881e-05
-3.91934e-05
2.83306e-05
3.71945e-05
-1.3714e-05
3.56368e-05
-5.44159e-05
8.30445e-05
3.03244e-05
-1.94273e-05
-2.67295e-05
6.84281e-05
4.12181e-05
-2.91596e-05
3.35346e-05
3.92142e-05
3.68372e-05
-3.48373e-05
-2.81516e-05
1.41674e-05
3.52948e-05
-7.15666e-05
-2.16159e-05
4.60052e-05
3.64993e-05
2.31861e-05
-3.12363e-05
-7.13484e-05
2.25485e-05
-3.52723e-05
7.69857e-05
-4.16434e-05
-1.37859e-05
7.45142e-05
-5.40668e-05
4.00399e-06
-1.77851e-05
-5.58046e-05
2.01227e-05
5.95965e-06
5.05818e-05
6.3116e-05
-6.58248e-05
8.14188e-05
-4.32243e-05
-2.44335e-05
2.672e-05
4.39445e-06
9.56806e-06
7.65536e-06
4.39072e-06
-4.22162e-05
2.17021e-05
1.01272e-05
-1.56357e-05
-7.88143e-05
-2.79717e-05
-7.33137e-06
2.62833e-05
6.22892e-06
2.38393e-05
-8.04139e-06
5.26155e-05
3.00966e-05
-3.07958e-05
-8.68591e-05
1.14744e-05
3.87329e-05
1.11607e-05
-2.8562e-05
-9.12475e-06
-2.48174e-06
2.21182e-05
-3.22983e-06
2.53444e-05
2.25466e-05
3.20969e-05
-2.08742e-05
-3.06254e-06
6.05604e-06
-3.41376e-06
3.49665e-05
-2.44873e-05
5.34737e-05
1.96632e-05
1.27887e-05
-1.15689e-05
2.92526e-05
2.8708e-06
3.39589e-05
-1.8717e-05
-2.88687e-06
-6.90412e-05
2.46684e-05
-5.03846e-06
-1.26838e-05
2.05981e-05
-2.63399e-05
-2.66172e-06
-3.02473e-05
-7.38933e-05
-1.16543e-05
0.000124286
-9.67176e-05
2.30564e-05
4.08877e-05
1.1208e-05
1.89696e-05
2.29747e-05
-6.50405e-05
-1.85564e-05
-3.58935e-05
9.88774e-06
-2.25083e-05
-0.000114619
5.06442e-05
-0.000120175
-5.21552e-05
0.000129995
-2.85546e-05
-3.29313e-05
1.39811e-05
-3.0878e-06
-4.58444e-06
-6.87179e-05
5.01284e-07
2.54062e-05
-3.06808e-05
-4.83699e-05
-2.0983e-05
3.77457e-05
3.99078e-05
1.09903e-05
-3.37759e-05
2.43066e-05
4.9192e-05
4.58609e-05
-7.13917e-05
-6.57424e-05
-4.48677e-05
5.14658e-05
2.45078e-06
-1.54716e-06
-6.96715e-05
3.42145e-07
-1.04235e-05
6.89412e-06
-2.2904e-05
-2.35485e-06
-3.06222e-05
3.27413e-05
-3.22668e-06
-1.03374e-05
-2.52563e-05
2.84618e-05
9.52233e-05
-3.02623e-05
3.21708e-05
4.43814e-05
-4.54086e-05
-0.000101101
-3.30767e-05
0.00011101
6.25448e-05
-5.28276e-05
-0.000107186
-1.18128e-05
6.85666e-05
3.46116e-05
-5.40465e-05
-5.21375e-05
4.75175e-05
-4.06371e-05
-0.000119436
6.12033e-05
-1.81565e-05
-3.11728e-05
0.000105493
-4.54732e-05
-9.29438e-05
-5.38456e-05
9.50554e-06
-5.54987e-05
1.67226e-05
4.28176e-06
-7.23695e-05
6.5245e-06
4.59254e-05
6.77723e-06
-2.0666e-06
5.32216e-05
2.83381e-05
-3.75981e-05
-4.85512e-05
0.000104193
-1.62809e-05
-5.72717e-06
-2.97e-05
-2.67255e-06
-4.58115e-05
8.228e-06
-1.31113e-05
-4.38887e-05
-3.3671e-05
-5.49546e-05
4.80607e-05
-3.43905e-05
5.50936e-05
-3.26773e-05
-2.49945e-05
-9.60915e-06
3.26963e-05
-4.34383e-05
8.21745e-05
3.9906e-06
1.01072e-05
-2.64168e-05
-1.68569e-06
5.18315e-05
-5.05239e-05
7.65338e-05
-2.69969e-05
-2.84479e-05
5.25336e-06
1.91289e-05
5.75269e-05
-1.55068e-05
1.41477e-05
1.54796e-05
9.67545e-05
-2.6059e-05
2.79723e-06
-6.86488e-05
-4.36418e-06
5.35557e-06
-6.22822e-07
-1.12269e-05
2.76122e-05
-7.06458e-05
2.38863e-05
3.64642e-05
-5.86128e-06
-1.47322e-05
5.85362e-05
-1.46381e-06
5.05126e-07
-8.36374e-06
-6.68822e-05
-7.45896e-06
-5.66773e-05
5.49136e-05
-1.55683e-05
-6.51173e-05
1.93969e-05
-2.50087e-05
1.49552e-05
4.44496e-05
-8.879e-06
-5.64912e-05
-7.07044e-05
-8.34162e-06
-2.96299e-05
-2.15252e-06
-1.83217e-05
-1.89303e-06
-0.000102778
8.7478e-06
3.2482e-05
3.07965e-05
-0.000103662
-3.61558e-05
2.02423e-05
8.39111e-05
4.75254e-06
-1.31456e-05
3.19692e-05
7.14674e-07
-3.7137e-05
-7.51376e-05
-6.92122e-05
-2.21247e-06
-7.097e-05
1.36695e-06
-4.37517e-05
5.21014e-05
-3.20335e-05
-2.11231e-05
9.38203e-06
-1.06101e-06
4.85138e-06
-2.59297e-05
5.72975e-05
-2.03843e-05
4.02204e-05
1.71229e-05
-4.36114e-05
4.79107e-06
-4.09902e-05
-3.49362e-07
2.30941e-05
-3.31628e-05
1.34481e-05
1.2359e-05
-2.6104e-05
-4.63808e-05
1.17685e-05
-4.40206e-05
0.000100773
4.1617e-05
5.95754e-05
5.72694e-06
3.63612e-06
3.72172e-05
-2.83869e-05
-2.65322e-05
-3.87036e-05
-3.32436e-05
-2.94519e-06
-4.83461e-06
-7.42389e-05
-9.21183e-05
-4.12925e-05
9.36042e-05
1.79687e-05
2.46146e-05
5.07894e-05
-3.9092e-05
-4.86932e-05
-6.07771e-05
2.91872e-05
-7.01526e-05
2.39769e-05
5.7101e-05
1.43803e-05
-8.54451e-05
6.48925e-05
5.64149e-06
1.1501e-05
-0.000120716
5.33742e-05
7.36078e-05
5.39154e-06
1.38736e-05
1.18414e-05
-9.65118e-06
3.66952e-05
-3.03431e-05
4.71816e-05
6.17246e-05
-4.68083e-06
-4.04327e-05
-2.98405e-05
4.8345e-06
-1.19198e-06
4.36949e-05
-1.84972e-06
-1.13769e-05
-1.70611e-05
7.82476e-05
-4.58397e-06
1.79141e-05
-3.62854e-05
-7.78635e-05
7.38346e-05
-9.19306e-05
-5.20784e-06
2.09286e-05
2.30654e-06
7.05892e-05
3.83814e-05
7.42124e-06
5.50146e-05
-1.01444e-05
4.60939e-05
-1.68376e-05
-5.88743e-05
-4.91897e-05
5.14218e-05
5.45885e-05
-1.98534e-05
5.8101e-05
3.02007e-05
1.38802e-05
2.24963e-05
6.25569e-05
6.9018e-06
-8.80084e-05
-1.34251e-05
-5.00772e-06
4.87006e-05
5.99248e-05
6.30916e-05
1.42632e-06
2.1443e-05
-2.66382e-05
-9.90415e-06
-6.22049e-05
-1.60285e-05
3.25949e-05
-3.85357e-05
-1.90414e-05
5.31542e-05
-2.28162e-05
1.54101e-05
-4.23555e-05
-5.64381e-07
-5.11482e-05
-1.0791e-05
-0.000114607
2.06342e-05
1.91705e-05
7.28541e-05
2.73276e-05
-4.94909e-05
5.05783e-05
5.27876e-05
6.41991e-05
-7.99028e-06
4.43975e-05
-4.86515e-05
-2.58866e-05
-3.12887e-05
9.76643e-05
-4.46026e-05
-4.87091e-05
2.70449e-05
-5.04586e-05
1.36548e-05
-9.01835e-05
-0.000131356
6.04794e-05
5.67492e-05
-1.70094e-05
2.47725e-05
-9.10822e-06
5.16698e-05
-8.06584e-05
3.82913e-05
3.7834e-05
1.59072e-05
-7.9762e-06
-6.65453e-06
3.57421e-05
3.13767e-05
-9.32617e-05
-4.72957e-05
-9.38078e-05
-4.97692e-05
6.8475e-05
-3.54387e-05
9.14547e-06
-3.66229e-05
3.87211e-05
1.69344e-05
4.47605e-05
-5.40497e-05
2.94938e-05
6.61316e-05
1.22404e-05
-6.64289e-05
1.134e-06
1.48166e-05
-1.36935e-05
6.08948e-05
-9.09204e-07
7.89304e-05
9.09693e-06
5.26163e-05
-9.66368e-05
3.41133e-05
6.60564e-06
-1.27822e-05
-4.43459e-05
-2.06708e-05
3.15066e-06
-9.30857e-07
-6.30612e-05
-0.000100798
-4.15874e-05
-9.15083e-05
-4.8186e-05
5.62917e-05
-1.52462e-05
-5.22909e-05
-2.41201e-05
-1.08294e-05
-4.5769e-05
-4.23091e-05
1.19056e-05
2.8361e-05
-1.41362e-05
-5.28248e-05
-6.13478e-05
1.77325e-05
1.07329e-05
-2.08277e-05
5.96304e-05
1.79082e-06
2.512e-05
-2.36353e-05
5.88679e-05
3.18957e-05
4.7611e-05
-7.31891e-05
7.22463e-05
-0.000100922
-6.24056e-06
6.49318e-05
8.48877e-06
3.23068e-05
-3.30666e-06
-4.32206e-05
2.37813e-06
1.99967e-05
-1.27291e-05
9.59344e-06
3.61404e-05
2.75429e-05
6.92138e-05
-2.72365e-06
-6.32235e-05
-6.14533e-06
-7.61077e-06
-1.02117e-05
4.45032e-05
5.20132e-06
2.67313e-05
-6.62974e-06
-4.79852e-06
-2.94803e-05
1.43551e-05
5.6898e-06
6.79197e-05
9.01206e-06
3.43916e-05
1.84249e-05
1.29042e-05
-4.46521e-05
3.45933e-05
3.36549e-05
1.93843e-06
-1.88091e-05
4.46873e-05
-5.23895e-05
6.75358e-05
7.7465e-05
6.37141e-06
8.13847e-05
-3.1811e-05
2.20673e-05
-1.73568e-05
-2.87804e-05
-6.86576e-05
1.1924e-05
2.4791e-05
1.23705e-05
-3.48678e-05
2.16776e-05
-2.20751e-05
-3.52506e-06
1.23348e-05
1.70921e-06
2.97129e-05
-6.88564e-05
-1.33736e-05
9.18963e-05
-3.43517e-05
1.47279e-05
-1.23634e-05
4.94565e-05
2.42061e-05
-4.44688e-05
5.05932e-05
0.000106778
9.66929e-05
6.52508e-05
8.90228e-07
-7.20657e-06
-1.14558e-05
6.66906e-05
-5.44789e-06
4.01791e-05
-2.33981e-05
4.1756e-05
-3.41276e-05
-2.13978e-05
6.28131e-06
-2.62639e-05
3.58215e-05
-8.93141e-05
4.69468e-05
-3.57556e-05
3.30252e-05
2.34647e-05
-9.97119e-05
2.21338e-05
3.57023e-05
-1.87462e-05
2.1326e-05
-6.78236e-05
2.71613e-05
-5.16976e-05
5.68144e-05
4.88438e-05
-1.74805e-05
3.80406e-05
4.54168e-05
1.17882e-05
-8.37981e-06
2.07494e-05
-2.05644e-05
5.28253e-05
-7.57062e-05
-4.26271e-05
-7.67235e-06
2.04986e-05
-1.54355e-05
-3.12331e-05
1.17399e-05
6.21659e-05
4.88069e-05
4.33635e-06
-0.00012757
-5.02235e-05
-6.86675e-05
-6.60995e-05
3.09139e-05
7.61508e-05
-7.01356e-05
-7.0302e-06
9.28482e-06
4.82404e-05
3.84008e-06
8.47294e-06
-6.75762e-05
-1.85831e-05
1.21742e-05
-8.6677e-06
-3.19523e-05
-1.42826e-05
3.18338e-06
7.33044e-06
1.8241e-05
2.56519e-05
-6.78835e-05
-4.71447e-06
3.49286e-05
-5.05326e-05
1.07936e-05
-1.50143e-05
-1.63054e-05
-2.95391e-05
9.5389e-05
2.63909e-05
-1.76686e-05
-2.15016e-05
-1.27987e-05
8.03312e-06
-1.35814e-05
2.6391e-05
-7.18527e-06
-1.90844e-05
2.17278e-05
5.39329e-05
-9.03435e-05
5.7904e-05
-1.44775e-05
-1.46057e-05
-3.83228e-05
-4.54379e-05
2.61612e-05
5.74813e-05
2.07161e-05
1.80581e-05
2.61945e-05
-7.22148e-06
-2.65967e-05
2.38707e-05
-3.81795e-05
-3.29989e-05
2.86612e-05
4.19584e-06
5.34139e-05
-1.29025e-05
-4.54602e-06
9.10496e-05
1.63321e-05
1.69134e-05
-4.63275e-05
3.55744e-05
-3.91718e-05
2.29459e-05
1.72226e-05
3.0864e-06
6.80585e-05
6.72811e-05
-1.70233e-05
-7.54697e-06
4.55866e-05
-1.2388e-05
-6.61262e-06
0.000122596
3.2628e-05
1.82127e-05
2.49495e-05
-5.22536e-05
-2.22395e-05
-5.70166e-05
1.30455e-06
7.69016e-06
2.41782e-05
1.07716e-05
-5.20681e-05
1.76703e-05
6.44936e-05
-6.11886e-05
5.44072e-05
-4.49324e-05
-7.05207e-05
6.23101e-06
3.27919e-05
4.70873e-05
1.32737e-06
1.32954e-05
-7.78602e-05
-2.81828e-05
-6.89249e-06
0.000112601
3.68482e-05
-3.34255e-05
4.85629e-05
3.18353e-05
1.14889e-05
6.94903e-05
0.000133271
-7.38589e-05
-4.20368e-05
-1.68975e-05
2.0411e-05
8.13231e-06
-1.95539e-05
3.47553e-05
5.05912e-05
-6.30394e-05
-4.22691e-05
1.79628e-05
5.70342e-05
-6.66594e-07
2.83984e-05
-3.47795e-05
-8.23163e-05
-3.16931e-05
-5.51025e-05
-1.69489e-05
6.43997e-05
-5.57767e-05
5.25211e-05
-0.00011234
-7.10648e-05
-1.52237e-05
-1.6027e-05
-3.59304e-05
5.28323e-05
4.40276e-05
-4.75487e-06
-6.05781e-05
-2.0325e-05
1.72128e-05
2.40917e-05
-2.15003e-05
-3.80279e-05
1.84211e-05
-5.22968e-05
-1.48045e-05
-9.04263e-05
-1.86139e-05
-1.40982e-05
0.000121308
-2.54703e-05
5.25205e-05
3.79467e-05
3.1194e-05
-3.85304e-05
-5.10202e-06
-4.49663e-05
2.62945e-05
1.12427e-05
-1.86053e-05
1.74429e-05
-3.76214e-05
8.71101e-06
-3.17957e-05
7.14648e-05
-7.47018e-05
0.00010181
5.19647e-05
3.18051e-05
1.94154e-05
4.63659e-05
-3.00468e-06
1.62398e-05
7.99991e-05
3.6757e-06
-1.37995e-05
-5.2109e-05
-5.62187e-05
2.68223e-05
-3.78024e-05
-4.78229e-05
2.88632e-05
-2.68996e-05
-1.16547e-05
-5.02805e-05
3.10767e-05
-2.00595e-05
3.81089e-05
-8.71744e-05
-4.69047e-05
1.6719e-05
4.92437e-05
9.12813e-06
1.42574e-06
-6.69414e-05
-7.27302e-05
-1.43615e-05
-9.74489e-06
-1.56976e-05
2.67379e-05
-9.21225e-05
-5.8864e-05
-1.25875e-05
5.10605e-05
-8.97489e-05
7.86012e-05
1.309e-05
1.51683e-05
-0.000114672
-4.19711e-05
1.0648e-05
8.84153e-05
-6.75267e-06
-6.93079e-06
1.08086e-05
-9.15194e-05
-1.49588e-05
1.07782e-05
5.18088e-05
-3.28289e-05
4.25933e-05
9.43081e-06
7.85803e-07
4.03606e-05
-3.8346e-06
2.6673e-05
-2.21874e-05
6.11413e-07
2.16381e-06
1.83086e-05
-2.01634e-05
-7.52346e-05
-8.20155e-05
-4.08833e-05
3.06884e-05
3.11451e-05
-1.76034e-05
-1.14894e-05
3.87499e-05
9.27446e-06
1.17535e-05
-4.44876e-05
-5.27485e-05
-4.26524e-05
9.60724e-05
-3.91068e-05
-6.17569e-05
-4.5125e-05
4.72064e-06
-4.1578e-05
-1.74774e-06
2.57663e-05
4.81142e-05
-3.50769e-05
2.89143e-05
3.42632e-05
2.19488e-05
-2.03147e-05
-2.84289e-05
2.95847e-05
6.23253e-05
1.81491e-05
-1.77094e-05
-4.22893e-05
-3.51795e-06
6.32223e-05
3.54694e-06
7.63219e-06
-5.29387e-06
1.017e-05
2.74985e-05
2.91364e-05
-2.60759e-05
-5.97399e-05
8.67879e-05
3.29316e-05
-1.45722e-05
-1.42368e-05
5.72898e-05
3.8431e-06
9.81886e-05
0.000121366
-2.85938e-05
2.49975e-05
7.872e-06
-1.86716e-05
-1.7015e-05
-7.32373e-05
0.00011208
-1.25975e-05
-6.01782e-05
7.86223e-06
3.08843e-05
9.78354e-06
7.84069e-06
1.71367e-05
4.85452e-08
-2.6723e-05
-2.5681e-05
-4.13363e-05
-4.55838e-05
-1.76242e-05
-7.7656e-06
-4.82693e-05
7.13977e-05
1.64247e-05
3.01735e-05
-3.19597e-05
1.39847e-05
-1.39405e-05
-1.55896e-05
4.47629e-06
-1.65859e-05
8.27658e-05
5.56015e-05
5.67245e-06
3.54119e-05
2.86242e-06
-1.63056e-05
2.07495e-05
9.63197e-06
-1.45014e-05
-4.88877e-05
-4.0748e-05
-9.69239e-06
4.12577e-05
-2.15803e-05
-3.41526e-05
5.64971e-05
-1.37314e-05
-5.04197e-05
3.84736e-05
-2.33623e-05
-1.19593e-06
-5.94475e-05
5.95266e-06
6.40079e-05
-7.3972e-05
-2.23715e-05
-4.28851e-06
-7.43157e-05
-1.58099e-05
5.60065e-05
-2.41017e-05
5.20147e-05
4.58725e-05
-3.16427e-05
0.000122277
2.8996e-05
1.20708e-05
-2.74088e-05
-3.44678e-05
-3.20193e-05
5.98461e-05
4.27901e-05
-2.5427e-05
-1.62862e-05
4.25265e-05
4.5598e-05
-7.08047e-05
-4.53845e-05
-1.75918e-05
6.00138e-05
3.7081e-05
4.3697e-05
-7.64546e-06
2.17555e-05
1.48437e-05
1.47814e-05
3.49522e-05
1.44986e-05
-7.17352e-05
5.90795e-05
3.93528e-05
-1.62128e-05
4.74527e-05
-1.84557e-05
-3.84233e-05
8.46094e-05
5.78985e-05
5.29927e-05
-2.8294e-05
-1.40258e-05
-3.38175e-06
6.56869e-05
1.70162e-05
1.81664e-05
-1.45179e-05
-3.22154e-05
8.30134e-06
5.70647e-05
3.72089e-05
6.89621e-05
3.92867e-05
3.07858e-05
-1.59348e-05
4.17501e-05
8.47271e-06
-3.21823e-05
-1.0755e-05
-1.4593e-05
5.39317e-05
1.21891e-05
2.11238e-05
-2.64747e-05
1.12994e-05
-2.39076e-05
-1.44512e-05
1.09987e-05
-7.73463e-06
4.69107e-06
1.68589e-05
6.67056e-05
1.57988e-05
-0.00010758
-8.24989e-05
6.52287e-06
-5.85075e-05
5.17322e-05
1.84865e-05
1.66772e-05
-7.07682e-05
5.68526e-06
-1.86227e-05
-4.33436e-05
5.83279e-05
-4.15359e-05
-7.76739e-05
-1.33206e-05
-3.74753e-05
-1.10001e-06
5.06309e-05
3.43453e-05
5.21401e-05
2.95319e-05
4.71442e-05
-2.02369e-05
0.000134813
5.51655e-05
-3.82704e-05
-1.12217e-05
0.000111733
1.12818e-06
-1.38335e-05
-2.07326e-05
-1.05342e-05
5.75127e-06
2.51086e-05
-6.47185e-05
1.22283e-06
0.00011825
2.02322e-05
-6.96789e-05
-8.34583e-05
9.06892e-05
4.29543e-05
-6.09942e-05
-2.33576e-06
4.52437e-06
-2.48618e-05
-7.4984e-05
-6.30121e-06
3.39787e-05
6.28865e-05
-2.65869e-06
-2.97551e-05
-6.67722e-05
-1.08315e-05
7.42334e-06
3.03176e-05
-1.26921e-05
1.26476e-05
-3.24748e-05
-1.54034e-05
4.65957e-05
-6.06757e-07
-7.33228e-05
-3.61176e-05
3.19348e-05
5.07123e-05
5.52048e-05
-3.86604e-05
-2.71013e-05
-1.73226e-06
4.00438e-05
-1.28829e-05
1.15237e-05
2.75392e-05
1.51002e-05
2.02362e-05
3.27819e-05
-0.000103584
-2.37201e-05
5.62994e-05
-3.56046e-05
-8.56422e-05
0.000101617
-2.90696e-05
2.1579e-05
-5.19506e-05
6.29353e-06
-5.9559e-05
3.80143e-06
-4.0116e-05
2.21786e-05
-9.73744e-06
6.35829e-05
-2.76126e-05
-2.54388e-05
9.06725e-05
-5.55885e-05
-3.51447e-05
1.47815e-05
-2.30942e-05
3.46849e-05
-4.10144e-05
-1.0932e-05
2.9841e-05
3.45649e-05
-4.78456e-05
-5.78746e-05
-3.72983e-05
3.58615e-05
-1.02363e-05
-1.76757e-05
3.83473e-05
4.55044e-06
-3.0726e-05
-6.31749e-05
6.19027e-06
-5.68882e-05
0.000120349
-0.000117729
-6.80872e-05
1.01876e-05
-1.02161e-05
2.82162e-05
-1.96021e-05
-6.25616e-06
3.50748e-05
9.93151e-06
-5.96481e-05
5.40577e-05
-2.97576e-05
-7.26199e-07
-9.39064e-06
-2.64803e-05
5.89006e-05
9.35843e-05
7.95013e-05
-1.68924e-05
-6.82934e-05
-7.77043e-05
4.75626e-05
-1.31771e-06
1.17442e-05
5.16309e-05
-6.31511e-05
2.21432e-05
3.4572e-05
-3.8962e-05
4.92733e-05
9.85316e-06
-2.7369e-05
-7.18009e-05
-2.20758e-06
9.41241e-06
5.68593e-05
-2.01401e-05
-8.62242e-06
7.09016e-06
9.5705e-07
-2.91979e-05
-3.67723e-05
9.86969e-07
-7.08317e-06
-7.77073e-05
4.07125e-05
2.28041e-05
-2.33534e-05
-2.82733e-05
6.35523e-06
-3.10615e-05
-2.37781e-05
5.87648e-05
3.77756e-05
-8.88548e-05
1.88743e-05
2.82156e-05
2.42071e-05
-1.97266e-05
3.13716e-05
2.67718e-05
-2.78911e-05
-1.14414e-05
4.39797e-05
-1.84721e-05
6.28969e-06
-9.41637e-06
3.67076e-05
-1.65387e-05
-2.21911e-05
-3.26341e-05
2.11545e-05
-9.05285e-05
-2.25271e-05
7.17817e-06
-1.67805e-05
-5.12954e-05
-4.15265e-05
3.02579e-05
1.87587e-05
1.34516e-05
6.79973e-05
0.000103678
-2.68691e-05
-5.62222e-05
-7.36839e-06
-8.72929e-06
-8.22125e-06
-0.000119192
3.07661e-05
9.97084e-05
7.93557e-05
2.35238e-05
2.89525e-06
3.23561e-05
6.61891e-06
-1.27405e-05
-1.1237e-05
3.50224e-06
6.08939e-05
-6.73486e-06
5.99334e-05
-9.10833e-06
-4.93443e-05
-1.25004e-05
-1.79209e-05
3.41785e-05
-3.3798e-05
7.3954e-06
5.94533e-05
0.000102923
1.58965e-05
2.07464e-06
6.60841e-05
-5.49526e-05
-6.42199e-05
4.83613e-06
5.86055e-05
-3.53623e-05
-0.000113619
-3.21866e-05
8.25291e-06
3.03728e-05
4.09409e-06
1.25885e-05
-2.57911e-05
4.03053e-06
-1.99425e-05
-0.000115459
-8.30274e-06
2.3432e-05
1.67681e-05
-9.89949e-06
-1.77944e-05
3.41062e-05
5.3838e-05
-8.89064e-07
-3.26862e-05
-1.44822e-05
1.08398e-05
2.86296e-05
1.41953e-05
-1.13221e-05
4.36333e-05
-9.70019e-06
4.36601e-05
-6.26047e-06
-6.49596e-05
8.33399e-05
7.37316e-06
-2.33594e-05
-5.29964e-05
8.21939e-06
-7.67076e-05
-5.47337e-05
1.69987e-05
-2.35284e-05
6.93041e-05
-5.89248e-05
-1.58965e-05
-3.79654e-06
-4.36549e-05
1.74996e-06
6.90913e-06
-1.5634e-05
-1.26818e-05
-6.3132e-06
-2.87478e-05
6.3584e-05
-1.27362e-05
2.98872e-05
-1.94589e-05
0.00010666
-6.87313e-05
2.64239e-06
7.97833e-05
-7.28978e-05
-2.11624e-05
-1.82877e-06
-5.65464e-06
-3.07189e-05
-1.66474e-07
6.13105e-05
-4.53602e-05
-3.93693e-06
2.74233e-05
5.10004e-05
6.30203e-06
2.15229e-05
-5.93152e-05
-4.52379e-05
-4.5692e-05
-4.39741e-05
-2.38919e-05
-5.03431e-05
-2.24275e-05
-6.28909e-05
1.1195e-05
0.000117077
1.08846e-05
1.60304e-06
7.116e-06
-1.24833e-05
-9.79606e-05
1.17284e-05
-2.43355e-05
-6.52864e-05
-4.5734e-05
9.77494e-05
-2.84509e-05
2.46854e-05
2.8971e-05
-3.39514e-05
9.1926e-05
-5.06381e-05
-3.13994e-05
4.18513e-07
2.26264e-05
5.23939e-05
-4.63511e-05
3.01935e-06
-7.25873e-05
3.62428e-05
4.53796e-05
5.10275e-05
4.96123e-05
1.14613e-05
6.31437e-06
1.3857e-05
1.41445e-06
1.35627e-05
-5.94301e-05
-5.26094e-05
-3.14452e-05
3.68987e-05
-1.13074e-06
4.39375e-06
1.65974e-05
1.01102e-05
-4.56732e-05
-5.67071e-05
-2.16058e-05
3.75358e-06
3.021e-05
2.47171e-05
-3.70557e-05
-4.68158e-05
-8.0327e-05
-3.89204e-05
8.46455e-05
4.35198e-05
1.98977e-05
-8.17515e-06
-6.95768e-06
-5.38764e-05
3.5844e-05
-6.18511e-05
7.90432e-05
-1.59481e-05
-3.99175e-05
-6.26172e-05
3.51217e-05
5.15336e-05
1.97045e-06
-3.47034e-06
-9.94932e-06
5.4572e-05
-4.3594e-05
-3.20034e-05
3.58502e-05
-2.33706e-05
-7.19319e-06
3.16275e-05
-2.36786e-05
4.79085e-05
6.11598e-05
-1.50186e-05
5.83358e-05
-1.60113e-05
-5.555e-05
-4.11175e-05
3.92949e-05
8.73664e-05
-9.01846e-06
2.39064e-05
5.31231e-05
-2.11806e-06
3.7592e-05
-6.11142e-05
-5.37825e-05
4.75652e-05
-2.97431e-05
-7.41594e-05
-1.3014e-05
3.82878e-06
-4.959e-05
-1.00625e-05
1.48062e-05
3.36755e-06
-4.77557e-05
-3.26616e-05
4.77943e-06
4.40959e-05
4.04309e-05
-4.6578e-05
-4.65793e-05
9.95409e-06
6.58099e-05
1.77757e-05
-1.76014e-05
-0.000102062
4.74706e-05
-2.01665e-05
-7.77585e-06
-8.7989e-06
4.50334e-05
-5.59201e-06
-5.70058e-05
-1.93106e-05
-3.39668e-05
4.75906e-05
2.16508e-05
-2.22095e-05
-2.47785e-05
-2.54156e-05
-5.8905e-06
-1.15654e-05
-4.1318e-05
-4.0236e-05
1.2063e-06
-4.4826e-05
2.04254e-05
3.38093e-06
-2.82914e-05
3.01641e-05
9.34838e-06
-6.71301e-05
-4.05738e-05
7.09335e-05
-3.39556e-05
-2.67514e-05
2.1774e-05
1.56356e-05
1.44396e-05
-8.90181e-06
-1.19933e-05
1.44327e-05
8.70285e-05
-9.6974e-07
1.24228e-05
-5.59276e-05
-1.92776e-05
3.90809e-05
3.07022e-06
-4.05504e-05
7.56572e-06
6.72848e-05
3.9499e-05
-7.47542e-05
-3.48641e-05
2.46882e-05
-5.16154e-05
3.7672e-06
-4.08549e-05
-1.83189e-05
8.32831e-05
-3.53502e-05
-3.56359e-05
-9.10182e-06
-2.37038e-05
-7.61582e-05
-4.31741e-05
-3.44526e-05
3.03324e-05
-5.93209e-05
-4.43419e-05
-1.38482e-05
2.80144e-05
4.43447e-05
7.11181e-06
-4.18862e-07
-3.37956e-05
5.63178e-05
4.62115e-05
-7.51624e-05
0.000106831
-4.85464e-05
-1.38162e-05
-8.41683e-07
-1.47608e-05
-6.57006e-05