# vtk DataFile Version 1.0
Net Charge Density
ASCII
DATASET STRUCTURED_POINTS
DIMENSIONS 256 128 1
ORIGIN 0 0 0
SPACING 0.15625 0.15625 1
POINT_DATA 32768
SCALARS rhonet float
LOOKUP_TABLE default
-3.89619e-06
-9.51273e-05
0.000144792
9.63216e-05
3.56842e-05
0.000120451
-0.000118445
9.18582e-05
0.000154217
2.28992e-05
-3.75606e-05
0.000108726
0.00010382
7.94448e-05
0.000109346
4.99603e-05
8.77429e-05
0.000140235
4.0588e-05
-6.79098e-05
-6.40727e-06
0.000141859
0.000144767
4.77822e-05
3.72679e-05
2.07431e-05
7.7422e-05
9.05888e-05
-1.35218e-05
-7.27426e-05
5.23023e-05
3.97235e-05
4.36692e-05
6.9008e-05
1.24414e-05
0.000171713
1.68075e-05
7.28727e-05
7.73577e-05
-5.53078e-06
2.2932e-05
6.83207e-06
0.000136403
9.39816e-05
2.09385e-05
1.86828e-05
-3.16132e-05
6.95547e-05
0.000116213
7.88728e-05
-1.2008e-05
2.49782e-05
8.34418e-05
0.000148996
3.55955e-05
1.75044e-05
0.000151011
-5.17477e-05
5.67851e-06
7.16958e-05
5.02798e-05
6.0602e-05
7.16792e-06
8.01804e-05
8.22491e-05
-8.03834e-05
4.41819e-05
0.000136175
4.09958e-05
4.82831e-05
7.92339e-05
3.67109e-05
-2.69159e-05
4.96672e-05
-1.14902e-07
5.11557e-05
4.20862e-05
-3.83083e-05
9.21617e-05
0.000106615
8.71846e-05
2.54085e-05
7.49616e-05
0.000101106
4.54683e-05
-4.48024e-06
-1.66912e-05
6.70485e-05
0.000119669
-2.3488e-05
9.00028e-05
-1.47951e-05
-3.90528e-05
-6.21425e-06
-8.99181e-05
5.22715e-05
0.000157961
2.40975e-05
9.16881e-05
-2.49444e-05
0.000157723
9.09192e-05
-3.16941e-06
9.47259e-05
3.90382e-05
0.00013097
-2.58442e-07
-6.85495e-05
2.66288e-06
7.39996e-05
0.00013342
5.79277e-05
2.02986e-05
3.31153e-05
8.04213e-05
4.36592e-05
1.2266e-05
7.49691e-05
5.09606e-05
4.32276e-05
-3.98804e-05
-3.45636e-05
4.04445e-05
2.44896e-05
0.00011572
6.60873e-05
1.82552e-05
8.13091e-05
1.99641e-05
-1.88099e-05
0.000119796
9.26168e-05
-2.24402e-06
3.77485e-05
2.03247e-05
6.79668e-06
4.4609e-05
-3.19157e-05
4.68965e-05
-1.15025e-05
-4.98405e-05
2.32956e-05
2.09624e-05
0.000160761
9.88226e-05
2.06381e-06
0.000137836
1.1524e-05
-3.11242e-05
0.000132418
1.78269e-05
2.91318e-05
0.000108428
-8.34558e-06
3.45042e-05
4.32306e-05
5.74649e-06
3.42709e-05
-5.27618e-06
1.75426e-05
7.67777e-05
2.50087e-05
0.000112709
-2.20693e-05
3.25853e-05
2.55229e-05
5.84614e-05
-6.12724e-05
0.000105448
0.000137295
2.50291e-05
4.32234e-05
7.45817e-05
0.000111579
-2.02681e-05
-8.13324e-06
8.72933e-05
-8.23225e-05
1.15577e-05
3.31805e-05
8.87688e-05
-7.05998e-05
-3.18108e-05
5.65348e-06
1.04993e-05
7.98533e-05
4.14201e-05
7.20923e-05
0.000102553
7.46858e-05
2.48845e-05
0.000198125
8.16125e-05
-6.56997e-05
6.24198e-05
0.000201229
4.75222e-05
8.32751e-05
7.86673e-05
-1.63091e-05
5.95993e-05
0.00014917
4.39013e-05
3.83353e-05
-1.00759e-05
6.9771e-05
-5.9888e-05
5.34237e-05
6.86803e-05
8.5791e-05
6.81025e-05
0.000137439
0.000106096
-2.40523e-05
0.000111081
-0.000131281
0.000102691
9.90945e-05
-5.28727e-05
-3.7921e-05
8.69746e-05
0.000114877
0.000176992
3.40526e-05
7.95295e-05
5.67449e-05
-3.69127e-05
-1.51403e-05
8.69035e-05
6.8607e-05
6.22857e-06
4.16543e-05
2.36375e-05
2.60698e-05
0.000121307
-3.55702e-05
-2.05772e-05
2.75008e-05
5.94514e-05
8.97911e-06
1.84993e-05
8.66939e-05
-5.82663e-05
-3.07336e-07
2.65897e-05
-1.44099e-05
-2.21961e-05
-3.95468e-05
0.000128655
-4.29631e-06
2.10486e-05
-3.8513e-05
0.000102294
2.14383e-05
2.40527e-05
4.18613e-05
-0.000104899
2.47047e-05
-6.30284e-05
-2.51192e-05
-2.38868e-05
5.12261e-05
-2.60443e-05
-7.57637e-05
4.98933e-05
-6.60463e-05
-4.29e-05
2.3341e-05
-5.99083e-05
-8.02729e-05
3.00258e-06
-4.24264e-05
4.66232e-06
1.08908e-05
-2.15747e-05
-4.0608e-06
-5.82077e-05
-6.74932e-05
-0.000106138
-1.79205e-05
-2.00456e-05
-5.72714e-05
-2.52759e-05
7.73009e-06
-3.07413e-05
-8.53874e-05
-3.53891e-05
-8.36095e-06
2.74426e-05
-7.95681e-05
-6.67485e-05
2.31332e-05
-0.000103178
-3.37884e-05
1.98338e-05
-8.20332e-05
-5.15867e-05
-4.38413e-05
8.67306e-06
3.55996e-05
-2.47122e-05
4.87443e-06
-0.000112384
-3.15169e-05
3.88796e-05
-3.39411e-05
-6.56134e-05
-4.11936e-05
-3.17378e-05
2.98235e-05
-2.85318e-05
-3.54566e-05
-2.34863e-05
-0.000116111
1.48105e-05
-3.37929e-05
4.56307e-05
-5.12687e-05
-5.72854e-05
-3.73462e-05
-3.01474e-05
-6.05668e-05
-1.00288e-05
-7.9634e-05
-0.000109192
1.21046e-05
-4.39818e-05
9.01683e-06
-1.84355e-05
1.72418e-05
-5.13538e-05
-1.04342e-05
4.76094e-05
-2.54939e-05
5.74091e-05
2.16416e-07
-3.24121e-05
-5.04442e-05
-8.22563e-05
2.84828e-05
2.44661e-05
-6.16948e-05
-0.000158637
-4.16988e-05
-6.50762e-08
-1.69135e-05
8.77376e-06
5.33134e-05
3.1559e-06
-1.07943e-05
2.47145e-05
-5.96512e-06
3.43232e-05
-2.73114e-05
-6.84662e-06
-1.89501e-06
-4.36432e-05
-0.000106618
-3.96516e-05
-2.96773e-05
-3.55601e-05
1.64218e-05
-5.91242e-05
-4.2719e-05
-1.06718e-06
-6.00005e-06
5.43522e-05
-3.5424e-05
-7.1379e-05
-7.13195e-05
4.01705e-05
1.15477e-05
-5.23516e-05
-1.11543e-05
9.64536e-06
3.1899e-05
-8.5775e-05
1.39616e-05
-6.13793e-05
-7.74174e-06
-3.48632e-05
-1.67094e-05
-4.55657e-05
-6.96026e-05
1.70247e-05
-4.88095e-05
-2.07969e-05
1.5982e-05
-1.05534e-05
-2.35448e-05
-1.24414e-05
-3.31043e-05
-4.60126e-05
-1.33575e-05
-4.22457e-05
-8.32323e-06
-5.94475e-05
-7.82574e-05
8.69739e-06
-2.01969e-06
-8.38247e-05
1.05491e-05
-3.22356e-05
-4.36765e-05
-0.000117681
-8.72603e-06
-3.99575e-05
-3.83075e-05
-7.16747e-05
9.37108e-06
3.0005e-05
-1.70408e-05
-2.39993e-05
-1.85624e-06
-5.11224e-05
-2.02561e-05
-8.13478e-05
-6.40948e-05
3.62427e-05
-8.02714e-05
-7.56374e-06
2.37457e-05
2.21167e-05
-5.27813e-05
-2.42516e-06
3.60704e-05
-9.46561e-05
1.02371e-05
-2.21475e-05
3.9703e-05
-4.13513e-05
-2.55483e-05
-5.70063e-06
3.04058e-05
-6.90699e-05
-4.7768e-05
3.67507e-05
-4.79689e-06
2.05869e-06
-4.86566e-05
-0.000107547
-6.60243e-05
-2.66004e-05
-2.24797e-05
-9.33011e-06
-1.88568e-05
-0.00010145
6.32287e-06
3.69593e-05
4.60981e-06
-1.08491e-05
-2.36544e-05
-8.50843e-05
-3.90909e-05
4.81098e-05
-6.97793e-06
-7.51885e-05
-6.46278e-05
-4.37903e-05
3.0756e-05
-5.53513e-05
1.83075e-06
-5.12169e-05
9.71674e-05
1.17975e-05
-4.14071e-05
-5.22413e-05
-4.83996e-05
-4.73991e-05
3.21257e-05
-3.50827e-05
-7.29866e-05
1.6978e-06
-2.53873e-05
-1.98885e-05
4.50551e-06
-1.73198e-05
7.05676e-05
5.70889e-05
-6.70668e-05
-3.48983e-05
-2.73385e-05
-7.02046e-05
-2.06066e-05
2.42683e-05
8.58866e-05
-8.70341e-05
6.93451e-06
-4.34538e-05
-3.62702e-05
6.90324e-05
3.75879e-05
-6.27586e-05
-4.99166e-06
2.55416e-05
-5.11219e-05
2.2625e-05
-1.34832e-05
-4.80211e-05
-1.98244e-05
3.05462e-06
3.73245e-05
3.4268e-05
-1.23483e-05
-2.31678e-05
-0.000132199
-1.6659e-07
-7.60634e-06
5.12581e-05
-7.35326e-06
-7.36322e-05
5.0168e-06
-3.30424e-05
-1.99128e-06
5.00252e-05
-7.79796e-06
-2.3389e-05
-8.48027e-06
1.05414e-06
-1.92296e-05
7.13236e-05
-5.15232e-05
7.82218e-06
3.11633e-05
6.53442e-05
-4.67906e-05
-2.9064e-05
-1.14897e-05
-2.49562e-05
-9.34278e-05
-2.04816e-05
3.51588e-05
4.88631e-05
3.64082e-05
-1.64527e-05
3.77696e-05
6.14577e-05
-4.75243e-05
4.48449e-05
4.40087e-05
9.82289e-06
-5.10863e-05
1.23072e-05
2.34438e-05
7.04305e-05
4.96681e-05
-3.57149e-05
2.25288e-05
5.27385e-06
-2.5116e-05
4.8009e-05
3.40396e-05
2.11622e-05
-2.89197e-05
-7.34257e-05
2.16751e-05
3.48731e-05
1.42073e-06
-4.63356e-05
1.81701e-06
-1.65713e-05
5.22441e-05
1.92709e-05
-4.25102e-05
-9.05942e-05
6.88457e-06
2.94284e-05
9.43267e-06
3.90757e-05
-4.01759e-05
2.79774e-05
-3.30703e-05
9.02759e-05
1.87056e-05
2.1936e-05
-2.38945e-05
3.89221e-05
7.9507e-05
-1.43074e-06
-1.0787e-05
-4.31229e-05
-5.63426e-05
3.65558e-05
5.69143e-06
-2.97659e-05
3.18503e-05
-3.75108e-05
-1.97683e-05
6.36956e-05
5.06412e-05
-4.80585e-05
-4.18769e-05
-9.31276e-06
-2.63554e-05
-1.33663e-05
5.09445e-05
7.41072e-05
-1.3881e-05
-5.52129e-05
-6.02391e-05
2.25473e-05
4.01655e-05
-3.5647e-05
4.60856e-05
6.04029e-05
1.00422e-05
-2.72853e-05
-6.84023e-05
1.03845e-05
-3.90667e-05
-6.67314e-05
1.89331e-05
-3.86647e-05
-7.26082e-05
1.55343e-05
3.44662e-05
-9.18214e-06
-2.52392e-05
3.49991e-05
6.71938e-05
-7.81403e-06
-2.34846e-05
1.90871e-05
-3.45567e-05
-3.24682e-06
3.17622e-05
-4.3362e-05
-4.44567e-05
-1.29162e-05
6.1907e-05
-1.54721e-05
-1.92421e-05
-9.34349e-07
1.07801e-05
-2.67867e-05
6.43283e-05
6.28177e-07
3.16116e-05
-3.45438e-05
-2.02106e-05
3.29814e-05
-8.92987e-06
-5.33771e-05
-6.58383e-05
-1.97743e-05
2.38349e-06
3.65474e-05
8.36793e-06
-1.87801e-06
1.48285e-05
-2.75737e-05
4.24775e-05
2.79526e-05
9.69109e-05
6.65832e-05
1.94265e-05
1.45668e-05
-1.36635e-05
5.90174e-05
5.7769e-05
-3.53305e-05
8.65562e-05
-1.88478e-05
-2.10227e-05
-5.39364e-05
1.12335e-05
-1.22986e-05
7.03169e-05
-1.07869e-05
6.14941e-06
5.77937e-05
3.47515e-05
-3.56395e-05
-5.85639e-06
4.38268e-05
2.99951e-05
1.48884e-05
3.09409e-06
-6.29969e-05
1.44142e-05
-9.34472e-05
4.10876e-05
-3.3416e-05
-7.29719e-05
6.78678e-06
-4.31376e-05
3.26062e-05
-5.40691e-05
-3.51892e-05
-7.38073e-06
-3.46785e-05
7.78132e-06
5.28593e-05
1.66986e-05
-1.61515e-06
7.61895e-05
-2.8963e-06
5.27899e-05
3.30994e-05
2.69051e-05
3.20115e-05
-4.14017e-05
-7.9121e-05
6.70366e-06
-3.71058e-05
3.38652e-07
3.12877e-05
2.55893e-05
4.62427e-05
-7.34441e-06
3.85572e-05
-1.82485e-05
8.60398e-05
-3.51762e-05
-2.42111e-05
-2.44785e-05
3.96882e-05
3.96359e-05
-5.5962e-06
-1.59824e-05
5.26491e-05
-3.12827e-05
-9.51311e-06
1.32085e-05
3.03079e-05
4.01438e-05
-6.21299e-05
6.55721e-06
-4.02799e-05
7.68164e-05
-2.30571e-05
2.42703e-06
-2.36242e-05
-7.65698e-06
1.05589e-06
-7.58452e-05
1.89051e-05
4.24925e-05
2.73343e-06
-4.68809e-05
-0.000111356
2.32975e-05
1.92821e-05
1.66998e-06
4.11422e-05
-1.26259e-05
3.11458e-06
-2.15394e-05
-7.41896e-05
3.57792e-05
1.81664e-05
-4.43212e-05
1.38064e-05
2.4942e-05
-1.40069e-05
-5.45266e-05
-1.59671e-05
4.8483e-05
-4.49957e-06
-0.000139603
5.79739e-05
3.08066e-05
0.000100899
-3.72753e-05
3.82722e-05
1.96729e-05
-2.19462e-05
-3.16999e-05
-3.15023e-05
5.79791e-05
8.84747e-05
-9.06724e-06
-5.99889e-05
9.21881e-06
8.46363e-06
-1.851e-08
-2.07855e-05
-3.90375e-05
0.000130274
-3.43212e-05
-4.70512e-05
5.37115e-05
-2.79641e-06
2.82272e-06
-3.79189e-05
-6.05405e-05
4.75422e-05
4.84365e-05
-1.75372e-05
3.74636e-05
-5.19104e-05
4.18174e-05
3.39493e-05
-6.99728e-05
2.73657e-05
3.8806e-05
1.67806e-05
-5.26783e-05
6.2869e-05
-2.19621e-05
-4.31015e-05
-7.40332e-06
-2.66792e-05
4.25469e-05
3.65009e-06
2.7573e-05
-4.73879e-05
-6.43707e-06
3.03097e-05
-2.263e-05
-8.19345e-05
-4.95822e-05
1.36233e-05
3.36368e-05
4.53526e-05
-3.78168e-05
6.72052e-05
-2.02064e-05
-6.23043e-05
4.74695e-05
4.62765e-05
1.24057e-05
3.82881e-05
2.15026e-05
5.87143e-05
-6.49998e-05
-4.25668e-05
-1.34119e-05
4.39053e-05
4.787e-05
-2.23208e-05
-6.05173e-05
1.9829e-06
-2.43739e-06
-3.00118e-05
1.4892e-05
2.92046e-05
7.28873e-05
7.06639e-05
-3.58255e-05
-0.000140627
2.58457e-05
1.20339e-06
-2.88256e-05
-4.697e-05
5.72425e-05
3.12583e-05
1.75568e-05
-0.000107817
-1.58479e-05
1.13324e-05
3.99525e-05
3.2814e-05
-4.30103e-05
3.2036e-05
3.74885e-05
-3.91932e-05
2.83308e-05
3.71941e-05
-1.37137e-05
3.56365e-05
-5.44157e-05
8.30445e-05
3.03236e-05
-1.94276e-05
-2.67297e-05
6.8428e-05
4.12181e-05
-2.91597e-05
3.35345e-05
3.92138e-05
3.68368e-05
-3.48368e-05
-2.81513e-05
1.41669e-05
3.52943e-05
-7.15668e-05
-2.16156e-05
4.60055e-05
3.64993e-05
2.3186e-05
-3.1236e-05
-7.13485e-05
2.2548e-05
-3.52727e-05
7.69858e-05
-4.16434e-05
-1.3786e-05
7.4514e-05
-5.40671e-05
4.00376e-06
-1.77848e-05
-5.58047e-05
2.01226e-05
5.95965e-06
5.05822e-05
6.31162e-05
-6.58256e-05
8.14185e-05
-4.32241e-05
-2.44337e-05
2.67203e-05
4.39386e-06
9.56806e-06
7.65547e-06
4.39165e-06
-4.22164e-05
2.17024e-05
1.01272e-05
-1.5635e-05
-7.88146e-05
-2.79715e-05
-7.33067e-06
2.62832e-05
6.2288e-06
2.38391e-05
-8.04116e-06
5.26159e-05
3.00965e-05
-3.07956e-05
-8.68589e-05
1.14745e-05
3.87335e-05
1.11612e-05
-2.85618e-05
-9.12522e-06
-2.48163e-06
2.21188e-05
-3.22983e-06
2.53445e-05
2.25472e-05
3.20964e-05
-2.08741e-05
-3.06277e-06
6.05569e-06
-3.41376e-06
3.49665e-05
-2.44874e-05
5.34741e-05
1.96628e-05
1.27888e-05
-1.15689e-05
2.92528e-05
2.87069e-06
3.39586e-05
-1.87169e-05
-2.88594e-06
-6.90414e-05
2.46681e-05
-5.03857e-06
-1.2684e-05
2.05978e-05
-2.63404e-05
-2.66149e-06
-3.0247e-05
-7.38933e-05
-1.16543e-05
0.000124286
-9.67174e-05
2.30564e-05
4.08875e-05
1.1208e-05
1.897e-05
2.29746e-05
-6.50401e-05
-1.85566e-05
-3.58943e-05
9.88808e-06
-2.25088e-05
-0.000114619
5.06442e-05
-0.000120174
-5.2155e-05
0.000129995
-2.8555e-05
-3.29316e-05
1.39809e-05
-3.08768e-06
-4.58455e-06
-6.87174e-05
5.0175e-07
2.54062e-05
-3.06811e-05
-4.83699e-05
-2.09833e-05
3.7746e-05
3.99074e-05
1.09905e-05
-3.37756e-05
2.43066e-05
4.91927e-05
4.58607e-05
-7.13924e-05
-6.57425e-05
-4.48675e-05
5.14662e-05
2.45078e-06
-1.54704e-06
-6.9671e-05
3.41679e-07
-1.04236e-05
6.894e-06
-2.29036e-05
-2.35438e-06
-3.06219e-05
3.27416e-05
-3.2268e-06
-1.03374e-05
-2.5257e-05
2.84621e-05
9.52232e-05
-3.02625e-05
3.21711e-05
4.43814e-05
-4.54087e-05
-0.000101101
-3.30771e-05
0.00011101
6.25441e-05
-5.28279e-05
-0.000107186
-1.18129e-05
6.85668e-05
3.46118e-05
-5.40469e-05
-5.21382e-05
4.75182e-05
-4.06366e-05
-0.000119436
6.12031e-05
-1.81567e-05
-3.11725e-05
0.000105493
-4.54735e-05
-9.2944e-05
-5.38458e-05
9.50485e-06
-5.54984e-05
1.67228e-05
4.28176e-06
-7.23695e-05
6.5245e-06
4.59244e-05
6.77712e-06
-2.06637e-06
5.32226e-05
2.83387e-05
-3.75977e-05
-4.85512e-05
0.000104193
-1.62804e-05
-5.72798e-06
-2.97e-05
-2.67243e-06
-4.58121e-05
8.22812e-06
-1.31112e-05
-4.38886e-05
-3.36708e-05
-5.49548e-05
4.80606e-05
-3.43894e-05
5.50936e-05
-3.26771e-05
-2.49939e-05
-9.60927e-06
3.26966e-05
-4.34383e-05
8.21736e-05
3.99025e-06
1.01071e-05
-2.64166e-05
-1.68604e-06
5.18316e-05
-5.05238e-05
7.65341e-05
-2.69973e-05
-2.84479e-05
5.25312e-06
1.91289e-05
5.75266e-05
-1.55075e-05
1.41475e-05
1.54797e-05
9.67543e-05
-2.60589e-05
2.79723e-06
-6.86491e-05
-4.36418e-06
5.35534e-06
-6.23288e-07
-1.12271e-05
2.76116e-05
-7.06452e-05
2.38866e-05
3.64641e-05
-5.86058e-06
-1.47319e-05
5.85358e-05
-1.46369e-06
5.0501e-07
-8.36328e-06
-6.6882e-05
-7.4585e-06
-5.66778e-05
5.49133e-05
-1.55682e-05
-6.51168e-05
1.93964e-05
-2.50083e-05
1.49553e-05
4.44496e-05
-8.87841e-06
-5.64917e-05
-7.07047e-05
-8.34162e-06
-2.963e-05
-2.15287e-06
-1.83217e-05
-1.89291e-06
-0.000102778
8.74745e-06
3.2482e-05
3.07963e-05
-0.000103662
-3.61558e-05
2.02423e-05
8.39115e-05
4.75277e-06
-1.31456e-05
3.19692e-05
7.1479e-07
-3.7137e-05
-7.51382e-05
-6.92122e-05
-2.21236e-06
-7.09705e-05
1.36695e-06
-4.37521e-05
5.21012e-05
-3.20335e-05
-2.11224e-05
9.38238e-06
-1.06089e-06
4.85103e-06
-2.59299e-05
5.72976e-05
-2.03844e-05
4.02204e-05
1.71224e-05
-4.36114e-05
4.79072e-06
-4.09901e-05
-3.49246e-07
2.30942e-05
-3.31625e-05
1.34479e-05
1.23585e-05
-2.61039e-05
-4.63813e-05
1.17682e-05
-4.40205e-05
0.000100773
4.16171e-05
5.95755e-05
5.72752e-06
3.63565e-06
3.72169e-05
-2.83864e-05
-2.6533e-05
-3.87034e-05
-3.32443e-05
-2.94473e-06
-4.83543e-06
-7.42385e-05
-9.21183e-05
-4.12926e-05
9.36047e-05
1.79682e-05
2.46142e-05
5.079e-05
-3.90918e-05
-4.86937e-05
-6.07773e-05
2.91876e-05
-7.01525e-05
2.39774e-05
5.71006e-05
1.43813e-05
-8.54451e-05
6.48923e-05
5.64149e-06
1.15011e-05
-0.000120716
5.33741e-05
7.36077e-05
5.39143e-06
1.38736e-05
1.18415e-05
-9.65165e-06
3.66957e-05
-3.03432e-05
4.71818e-05
6.17245e-05
-4.68083e-06
-4.04333e-05
-2.98399e-05
4.83415e-06
-1.19198e-06
4.36947e-05
-1.84961e-06
-1.13773e-05
-1.70611e-05
7.82475e-05
-4.58374e-06
1.79142e-05
-3.62854e-05
-7.78637e-05
7.38349e-05
-9.19306e-05
-5.20819e-06
2.09284e-05
2.3063e-06
7.05894e-05
3.83819e-05
7.42078e-06
5.50144e-05
-1.01444e-05
4.60944e-05
-1.68378e-05
-5.88752e-05
-4.91897e-05
5.14215e-05
5.45884e-05
-1.98539e-05
5.81008e-05
3.02002e-05
1.38804e-05
2.24963e-05
6.25571e-05
6.90192e-06
-8.80088e-05
-1.34251e-05
-5.00819e-06
4.87004e-05
5.9925e-05
6.30915e-05
1.42632e-06
2.14429e-05
-2.6638e-05
-9.90403e-06
-6.22047e-05
-1.60283e-05
3.25947e-05
-3.85357e-05
-1.90416e-05
5.3154e-05
-2.28165e-05
1.54099e-05
-4.23554e-05
-5.64498e-07
-5.11477e-05
-1.0791e-05
-0.000114607
2.06346e-05
1.91715e-05
7.28539e-05
2.73271e-05
-4.94909e-05
5.05783e-05
5.27874e-05
6.41992e-05
-7.99028e-06
4.43971e-05
-4.86515e-05
-2.58863e-05
-3.12892e-05
9.76643e-05
-4.46026e-05
-4.87095e-05
2.70451e-05
-5.04584e-05
1.36551e-05
-9.01837e-05
-0.000131355
6.04799e-05
5.67487e-05
-1.70096e-05
2.47734e-05
-9.1081e-06
5.16701e-05
-8.06584e-05
3.82909e-05
3.78339e-05
1.59071e-05
-7.97561e-06
-6.65535e-06
3.57421e-05
3.13771e-05
-9.32614e-05
-4.72956e-05
-9.38079e-05
-4.97694e-05
6.84742e-05
-3.54392e-05
9.14512e-06
-3.66223e-05
3.87215e-05
1.69342e-05
4.47611e-05
-5.40493e-05
2.94939e-05
6.61317e-05
1.22405e-05
-6.64291e-05
1.13319e-06
1.48164e-05
-1.36935e-05
6.0895e-05
-9.08738e-07
7.8931e-05
9.09669e-06
5.26158e-05
-9.66367e-05
3.41136e-05
6.60529e-06
-1.27819e-05
-4.43456e-05
-2.06707e-05
3.15101e-06
-9.3109e-07
-6.3061e-05
-0.000100799
-4.1587e-05
-9.15081e-05
-4.81859e-05
5.62917e-05
-1.52453e-05
-5.22911e-05
-2.41197e-05
-1.0829e-05
-4.57695e-05
-4.23095e-05
1.19053e-05
2.8361e-05
-1.41364e-05
-5.28245e-05
-6.13481e-05
1.77327e-05
1.07333e-05
-2.08274e-05
5.963e-05
1.79058e-06
2.51201e-05
-2.36353e-05
5.88672e-05
3.18959e-05
4.76107e-05
-7.31891e-05
7.2247e-05
-0.000100922
-6.24068e-06
6.49315e-05
8.48935e-06
3.2307e-05
-3.30689e-06
-4.32202e-05
2.37767e-06
1.99967e-05
-1.27291e-05
9.59355e-06
3.61401e-05
2.75426e-05
6.92136e-05
-2.72365e-06
-6.3224e-05
-6.14568e-06
-7.61054e-06
-1.02117e-05
4.45029e-05
5.20144e-06
2.67307e-05
-6.6302e-06
-4.79841e-06
-2.94801e-05
1.43547e-05
5.68968e-06
6.79197e-05
9.01218e-06
3.43909e-05
1.84252e-05
1.29044e-05
-4.46518e-05
3.45939e-05
3.36547e-05
1.93808e-06
-1.8809e-05
4.46868e-05
-5.23892e-05
6.7536e-05
7.74651e-05
6.37164e-06
8.13844e-05
-3.1811e-05
2.20673e-05
-1.73559e-05
-2.87803e-05
-6.86579e-05
1.19241e-05
2.47911e-05
1.23697e-05
-3.48673e-05
2.16782e-05
-2.2075e-05
-3.52494e-06
1.23347e-05
1.70944e-06
2.97122e-05
-6.88564e-05
-1.33734e-05
9.18962e-05
-3.43517e-05
1.47284e-05
-1.23626e-05
4.94566e-05
2.42067e-05
-4.44683e-05
5.05936e-05
0.000106778
9.66929e-05
6.52503e-05
8.89879e-07
-7.20704e-06
-1.1456e-05
6.66908e-05
-5.44789e-06
4.01794e-05
-2.33974e-05
4.1756e-05
-3.41274e-05
-2.13978e-05
6.28049e-06
-2.62643e-05
3.58209e-05
-8.93142e-05
4.69468e-05
-3.5755e-05
3.3025e-05
2.34641e-05
-9.97118e-05
2.21338e-05
3.5702e-05
-1.87464e-05
2.13258e-05
-6.78231e-05
2.7162e-05
-5.16977e-05
5.68142e-05
4.88432e-05
-1.74801e-05
3.80408e-05
4.54165e-05
1.17872e-05
-8.37992e-06
2.07494e-05
-2.05642e-05
5.28253e-05
-7.5706e-05
-4.26273e-05
-7.6727e-06
2.04983e-05
-1.54356e-05
-3.1233e-05
1.17398e-05
6.21657e-05
4.88078e-05
4.33624e-06
-0.00012757
-5.02237e-05
-6.86676e-05
-6.60995e-05
3.09136e-05
7.61505e-05
-7.01352e-05
-7.0302e-06
9.28552e-06
4.82404e-05
3.83973e-06
8.47271e-06
-6.7576e-05
-1.85831e-05
1.21744e-05
-8.66805e-06
-3.19518e-05
-1.42837e-05
3.18373e-06
7.33056e-06
1.82416e-05
2.56518e-05
-6.78835e-05
-4.71459e-06
3.49289e-05
-5.05336e-05
1.07943e-05
-1.50145e-05
-1.63048e-05
-2.95392e-05
9.5389e-05
2.63902e-05
-1.76692e-05
-2.1502e-05
-1.27999e-05
8.03277e-06
-1.3581e-05
2.63904e-05
-7.18515e-06
-1.90847e-05
2.17278e-05
5.39323e-05
-9.03432e-05
5.79039e-05
-1.44779e-05
-1.46057e-05
-3.8323e-05
-4.54385e-05
2.61617e-05
5.74822e-05
2.07162e-05
1.80585e-05
2.6195e-05
-7.22182e-06
-2.65969e-05
2.38707e-05
-3.81797e-05
-3.29991e-05
2.86615e-05
4.19584e-06
5.34145e-05
-1.29023e-05
-4.54613e-06
9.10497e-05
1.63324e-05
1.69139e-05
-4.63275e-05
3.5574e-05
-3.91722e-05
2.29456e-05
1.72234e-05
3.08675e-06
6.8059e-05
6.72805e-05
-1.70232e-05
-7.54732e-06
4.55868e-05
-1.23872e-05
-6.61239e-06
0.000122596
3.26283e-05
1.82127e-05
2.49494e-05
-5.22541e-05
-2.22388e-05
-5.70168e-05
1.30467e-06
7.69063e-06
2.41785e-05
1.07718e-05
-5.20684e-05
1.76709e-05
6.4493e-05
-6.11888e-05
5.44076e-05
-4.49319e-05
-7.05203e-05
6.23148e-06
3.27919e-05
4.70874e-05
1.32748e-06
1.32959e-05
-7.78603e-05
-2.81836e-05
-6.89307e-06
0.000112601
3.68477e-05
-3.34256e-05
4.8563e-05
3.18354e-05
1.1489e-05
6.94903e-05
0.00013327
-7.3859e-05
-4.20364e-05
-1.68965e-05
2.04113e-05
8.13254e-06
-1.95552e-05
3.47549e-05
5.05914e-05
-6.30396e-05
-4.22688e-05
1.79629e-05
5.70343e-05
-6.6706e-07
2.83979e-05
-3.47798e-05
-8.23166e-05
-3.1693e-05
-5.51023e-05
-1.69484e-05
6.44003e-05
-5.57776e-05
5.25215e-05
-0.00011234
-7.10654e-05
-1.52237e-05
-1.60269e-05
-3.593e-05
5.28323e-05
4.40272e-05
-4.75452e-06
-6.05782e-05
-2.0325e-05
1.72125e-05
2.40916e-05
-2.14999e-05
-3.80278e-05
1.84211e-05
-5.2297e-05
-1.48044e-05
-9.04263e-05
-1.86138e-05
-1.40977e-05
0.000121308
-2.547e-05
5.25205e-05
3.7947e-05
3.11937e-05
-3.8531e-05
-5.10248e-06
-4.49659e-05
2.62945e-05
1.12425e-05
-1.86055e-05
1.74427e-05
-3.76216e-05
8.71113e-06
-3.17955e-05
7.14653e-05
-7.47018e-05
0.000101809
5.19645e-05
3.18054e-05
1.94149e-05
4.63662e-05
-3.00445e-06
1.62401e-05
7.99992e-05
3.67605e-06
-1.37993e-05
-5.21087e-05
-5.62181e-05
2.68224e-05
-3.78023e-05
-4.78228e-05
2.88637e-05
-2.6899e-05
-1.16545e-05
-5.02802e-05
3.10761e-05
-2.00594e-05
3.81088e-05
-8.71739e-05
-4.69048e-05
1.67188e-05
4.92437e-05
9.12813e-06
1.42597e-06
-6.69421e-05
-7.27302e-05
-1.43616e-05
-9.74443e-06
-1.56974e-05
2.6738e-05
-9.21227e-05
-5.88645e-05
-1.2588e-05
5.106e-05
-8.97492e-05
7.86015e-05
1.30896e-05
1.51685e-05
-0.000114672
-4.19714e-05
1.06483e-05
8.84151e-05
-6.75337e-06
-6.93079e-06
1.08087e-05
-9.15204e-05
-1.4959e-05
1.07792e-05
5.18092e-05
-3.28283e-05
4.25939e-05
9.43127e-06
7.85687e-07
4.0361e-05
-3.8353e-06
2.66728e-05
-2.21871e-05
6.1118e-07
2.16474e-06
1.83091e-05
-2.01636e-05
-7.52343e-05
-8.20158e-05
-4.08828e-05
3.06887e-05
3.11446e-05
-1.76036e-05
-1.14895e-05
3.875e-05
9.27434e-06
1.17532e-05
-4.44876e-05
-5.27485e-05
-4.26525e-05
9.60724e-05
-3.91066e-05
-6.17565e-05
-4.51249e-05
4.72018e-06
-4.1578e-05
-1.74763e-06
2.57662e-05
4.81147e-05
-3.50766e-05
2.89147e-05
3.42636e-05
2.19491e-05
-2.03152e-05
-2.84291e-05
2.9584e-05
6.23257e-05
1.81489e-05
-1.77098e-05
-4.22897e-05
-3.51807e-06
6.32219e-05
3.54706e-06
7.6323e-06
-5.2941e-06
1.01693e-05
2.74981e-05
2.91361e-05
-2.60761e-05
-5.97402e-05
8.67875e-05
3.29309e-05
-1.45722e-05
-1.42374e-05
5.72901e-05
3.84264e-06
9.8189e-05
0.000121367
-2.85937e-05
2.49974e-05
7.872e-06
-1.86713e-05
-1.70153e-05
-7.32376e-05
0.00011208
-1.25973e-05
-6.01785e-05
7.86211e-06
3.08848e-05
9.78354e-06
7.84057e-06
1.71361e-05
4.85452e-08
-2.67221e-05
-2.56815e-05
-4.13366e-05
-4.55836e-05
-1.76241e-05
-7.76583e-06
-4.82692e-05
7.13981e-05
1.64241e-05
3.01738e-05
-3.19598e-05
1.3984e-05
-1.39403e-05
-1.55892e-05
4.47582e-06
-1.65857e-05
8.27662e-05
5.56015e-05
5.67269e-06
3.54116e-05
2.86265e-06
-1.63063e-05
2.07494e-05
9.63174e-06
-1.45012e-05
-4.88878e-05
-4.07476e-05
-9.69227e-06
4.12576e-05
-2.15805e-05
-3.41525e-05
5.64969e-05
-1.37319e-05
-5.04198e-05
3.84742e-05
-2.33622e-05
-1.19559e-06
-5.9447e-05
5.9522e-06
6.40078e-05
-7.39725e-05
-2.23716e-05
-4.28851e-06
-7.43151e-05
-1.58097e-05
5.60062e-05
-2.4102e-05
5.20148e-05
4.58724e-05
-3.16427e-05
0.000122278
2.8997e-05
1.2071e-05
-2.74092e-05
-3.44679e-05
-3.20203e-05
5.98456e-05
4.27905e-05
-2.54269e-05
-1.62856e-05
4.25267e-05
4.55985e-05
-7.08054e-05
-4.53839e-05
-1.75915e-05
6.00134e-05
3.70808e-05
4.36972e-05
-7.64523e-06
2.17551e-05
1.48432e-05
1.47811e-05
3.49527e-05
1.44987e-05
-7.1735e-05
5.90798e-05
3.9353e-05
-1.62125e-05
4.74527e-05
-1.84561e-05
-3.84235e-05
8.46091e-05
5.78987e-05
5.29935e-05
-2.8294e-05
-1.40261e-05
-3.38187e-06
6.56864e-05
1.70165e-05
1.81667e-05
-1.45182e-05
-3.22156e-05
8.30158e-06
5.7065e-05
3.72084e-05
6.89618e-05
3.92864e-05
3.07859e-05
-1.59349e-05
4.17496e-05
8.47236e-06
-3.21823e-05
-1.0755e-05
-1.45924e-05
5.39325e-05
1.21889e-05
2.11238e-05
-2.64747e-05
1.12989e-05
-2.39077e-05
-1.4451e-05
1.09992e-05
-7.73463e-06
4.69061e-06
1.6859e-05
6.67055e-05
1.57995e-05
-0.00010758
-8.24986e-05
6.52252e-06
-5.85073e-05
5.17323e-05
1.84862e-05
1.66779e-05
-7.07684e-05
5.68561e-06
-1.86226e-05
-4.33433e-05
5.83277e-05
-4.15358e-05
-7.7674e-05
-1.33211e-05
-3.7475e-05
-1.09966e-06
5.06304e-05
3.43448e-05
5.21399e-05
2.95317e-05
4.71446e-05
-2.02379e-05
0.000134813
5.51658e-05
-3.82707e-05
-1.12215e-05
0.000111732
1.12865e-06
-1.38337e-05
-2.07329e-05
-1.05335e-05
5.75127e-06
2.51086e-05
-6.4718e-05
1.22259e-06
0.00011825
2.02318e-05
-6.96788e-05
-8.34584e-05
9.0689e-05
4.29547e-05
-6.09943e-05
-2.33611e-06
4.5246e-06
-2.48617e-05
-7.49837e-05
-6.30121e-06
3.39794e-05
6.28863e-05
-2.65893e-06
-2.97544e-05
-6.67728e-05
-1.0831e-05
7.42357e-06
3.03177e-05
-1.26917e-05
1.26476e-05
-3.24745e-05
-1.54037e-05
4.65962e-05
-6.0664e-07
-7.33233e-05
-3.61174e-05
3.19348e-05
5.07119e-05
5.52047e-05
-3.86604e-05
-2.71013e-05
-1.73179e-06
4.00436e-05
-1.28828e-05
1.1524e-05
2.7539e-05
1.51002e-05
2.02365e-05
3.2782e-05
-0.000103584
-2.37204e-05
5.62995e-05
-3.56048e-05
-8.56412e-05
0.000101617
-2.90697e-05
2.15789e-05
-5.19506e-05
6.29295e-06
-5.9559e-05
3.80247e-06
-4.01158e-05
2.21786e-05
-9.73768e-06
6.35828e-05
-2.76132e-05
-2.54391e-05
9.06728e-05
-5.55897e-05
-3.51443e-05
1.47806e-05
-2.30942e-05
3.4685e-05
-4.10142e-05
-1.09314e-05
2.98411e-05
3.45644e-05
-4.7846e-05
-5.78742e-05
-3.72987e-05
3.58617e-05
-1.02362e-05
-1.76755e-05
3.83472e-05
4.55056e-06
-3.07254e-05
-6.31748e-05
6.19085e-06
-5.68886e-05
0.000120349
-0.000117728
-6.80874e-05
1.01869e-05
-1.02159e-05
2.8216e-05
-1.96019e-05
-6.25558e-06
3.5075e-05
9.93139e-06
-5.96478e-05
5.40576e-05
-2.97576e-05
-7.26432e-07
-9.39053e-06
-2.64801e-05
5.89006e-05
9.35841e-05
7.95013e-05
-1.68916e-05
-6.82934e-05
-7.77035e-05
4.75621e-05
-1.31805e-06
1.17449e-05
5.16309e-05
-6.31508e-05
2.2143e-05
3.45721e-05
-3.89623e-05
4.92729e-05
9.85363e-06
-2.73689e-05
-7.18005e-05
-2.20723e-06
9.41299e-06
5.68598e-05
-2.01404e-05
-8.62195e-06
7.08958e-06
9.57516e-07
-2.91978e-05
-3.67721e-05
9.87202e-07
-7.08317e-06
-7.77071e-05
4.07125e-05
2.28041e-05
-2.33531e-05
-2.82726e-05
6.35616e-06
-3.10616e-05
-2.3779e-05
5.87649e-05
3.77756e-05
-8.88547e-05
1.88746e-05
2.8215e-05
2.42071e-05
-1.97261e-05
3.13714e-05
2.67731e-05
-2.78916e-05
-1.14413e-05
4.39794e-05
-1.84721e-05
6.2898e-06
-9.41649e-06
3.67078e-05
-1.65383e-05
-2.21911e-05
-3.26349e-05
2.11541e-05
-9.05289e-05
-2.25261e-05
7.17817e-06
-1.67807e-05
-5.12953e-05
-4.15264e-05
3.02575e-05
1.8758e-05
1.3452e-05
6.79975e-05
0.000103678
-2.68692e-05
-5.6222e-05
-7.36804e-06
-8.72905e-06
-8.22125e-06
-0.000119192
3.07653e-05
9.97076e-05
7.93551e-05
2.35243e-05
2.89537e-06
3.23567e-05
6.61891e-06
-1.27405e-05
-1.12369e-05
3.50166e-06
6.08937e-05
-6.73498e-06
5.99329e-05
-9.10833e-06
-4.93439e-05
-1.25014e-05
-1.7921e-05
3.41781e-05
-3.37977e-05
7.39563e-06
5.94537e-05
0.000102923
1.58965e-05
2.07406e-06
6.60841e-05
-5.49528e-05
-6.422e-05
4.83601e-06
5.86051e-05
-3.53628e-05
-0.000113619
-3.21865e-05
8.25233e-06
3.03728e-05
4.09479e-06
1.25882e-05
-2.57913e-05
4.03018e-06
-1.99421e-05
-0.000115459
-8.30286e-06
2.34316e-05
1.6768e-05
-9.89938e-06
-1.77936e-05
3.41057e-05
5.38379e-05
-8.89413e-07
-3.26859e-05
-1.44826e-05
1.08394e-05
2.86297e-05
1.41956e-05
-1.13219e-05
4.36337e-05
-9.70019e-06
4.36597e-05
-6.2607e-06
-6.49589e-05
8.33396e-05
7.37375e-06
-2.33592e-05
-5.29962e-05
8.21915e-06
-7.67083e-05
-5.47341e-05
1.69979e-05
-2.3528e-05
6.93038e-05
-5.89247e-05
-1.58963e-05
-3.79665e-06
-4.36553e-05
1.74972e-06
6.9089e-06
-1.56342e-05
-1.26815e-05
-6.3132e-06
-2.87473e-05
6.35844e-05
-1.27367e-05
2.9887e-05
-1.94589e-05
0.00010666
-6.87317e-05
2.64216e-06
7.97829e-05
-7.28979e-05
-2.11626e-05
-1.82819e-06
-5.65464e-06
-3.07189e-05
-1.66241e-07
6.13109e-05
-4.53608e-05
-3.93693e-06
2.74236e-05
5.10009e-05
6.30133e-06
2.1523e-05
-5.93155e-05
-4.52381e-05
-4.56918e-05
-4.39743e-05
-2.38915e-05
-5.03426e-05
-2.24269e-05
-6.28908e-05
1.11951e-05
0.000117078
1.08844e-05
1.6035e-06
7.11589e-06
-1.24834e-05
-9.79608e-05
1.1728e-05
-2.4335e-05
-6.5287e-05
-4.5734e-05
9.77495e-05
-2.8451e-05
2.46855e-05
2.89713e-05
-3.39508e-05
9.1926e-05
-5.0638e-05
-3.13994e-05
4.17931e-07
2.26257e-05
5.23938e-05
-4.63505e-05
3.01958e-06
-7.25874e-05
3.62428e-05
4.53801e-05
5.10277e-05
4.9612e-05
1.14614e-05
6.31425e-06
1.38576e-05
1.41433e-06
1.35632e-05
-5.94298e-05
-5.26095e-05
-3.14453e-05
3.68985e-05
-1.13039e-06
4.39445e-06
1.65974e-05
1.01095e-05
-4.56737e-05
-5.67068e-05
-2.16052e-05
3.75393e-06
3.02104e-05
2.47172e-05
-3.7055e-05
-4.68162e-05
-8.03269e-05
-3.89208e-05
8.46449e-05
4.352e-05
1.9897e-05
-8.17538e-06
-6.95721e-06
-5.38764e-05
3.58438e-05
-6.1851e-05
7.90431e-05
-1.59477e-05
-3.99176e-05
-6.26174e-05
3.51222e-05
5.15333e-05
1.97091e-06
-3.47081e-06
-9.94955e-06
5.45721e-05
-4.35943e-05
-3.20032e-05
3.58508e-05
-2.337e-05
-7.19354e-06
3.1627e-05
-2.36788e-05
4.79089e-05
6.116e-05
-1.50192e-05
5.83354e-05
-1.60111e-05
-5.55502e-05
-4.11182e-05
3.92951e-05
8.73667e-05
-9.01835e-06
2.39067e-05
5.31235e-05
-2.11794e-06
3.75923e-05
-6.11141e-05
-5.37825e-05
4.75649e-05
-2.97432e-05
-7.41592e-05
-1.30141e-05
3.8289e-06
-4.95904e-05
-1.00627e-05
1.48065e-05
3.36801e-06
-4.77557e-05
-3.26616e-05
4.77978e-06
4.4096e-05
4.04307e-05
-4.65772e-05
-4.65796e-05
9.95398e-06
6.58096e-05
1.77755e-05
-1.76015e-05
-0.000102062
4.74704e-05
-2.01662e-05
-7.77561e-06
-8.79867e-06
4.50331e-05
-5.59154e-06
-5.70052e-05
-1.93107e-05
-3.39667e-05
4.75906e-05
2.1651e-05
-2.22095e-05
-2.47788e-05
-2.54153e-05
-5.89038e-06
-1.15662e-05
-4.13184e-05
-4.0236e-05
1.2056e-06
-4.48264e-05
2.04252e-05
3.38047e-06
-2.82915e-05
3.01645e-05
9.3485e-06
-6.71305e-05
-4.05741e-05
7.09336e-05
-3.39558e-05
-2.67518e-05
2.17739e-05
1.56362e-05
1.44397e-05
-8.90205e-06
-1.19933e-05
1.44319e-05
8.70279e-05
-9.6974e-07
1.24226e-05
-5.59277e-05
-1.92777e-05
3.90806e-05
3.06987e-06
-4.05497e-05
7.56606e-06
6.7285e-05
3.9499e-05
-7.47547e-05
-3.48638e-05
2.46885e-05
-5.16153e-05
3.76743e-06
-4.08548e-05
-1.83192e-05
8.32835e-05
-3.53507e-05
-3.56361e-05
-9.10158e-06
-2.37037e-05
-7.61583e-05
-4.31733e-05
-3.44525e-05
3.03322e-05
-5.93201e-05
-4.43421e-05
-1.3848e-05
2.80135e-05
4.43452e-05
7.11239e-06
-4.18746e-07
-3.37955e-05
5.63172e-05
4.62114e-05
-7.51623e-05
0.000106831
-4.85465e-05
-1.38164e-05
-8.41683e-07
-1.4761e-05
-6.57007e-05