# vtk DataFile Version 1.0
Net Charge Density
ASCII
DATASET STRUCTURED_POINTS
DIMENSIONS 256 128 1
ORIGIN 0 0 0
SPACING 0.15625 0.15625 1
POINT_DATA 32768
SCALARS rhonet float
LOOKUP_TABLE default
-3.8963e-06
-9.51276e-05
0.000144792
9.63218e-05
3.56843e-05
0.000120451
-0.000118445
9.18581e-05
0.000154216
2.28994e-05
-3.75608e-05
0.000108726
0.00010382
7.94452e-05
0.000109346
4.99608e-05
8.77432e-05
0.000140235
4.05879e-05
-6.79102e-05
-6.4068e-06
0.000141859
0.000144767
4.77827e-05
3.7268e-05
2.07428e-05
7.74217e-05
9.0589e-05
-1.35214e-05
-7.27428e-05
5.23024e-05
3.97235e-05
4.36692e-05
6.90082e-05
1.24415e-05
0.000171713
1.68071e-05
7.28725e-05
7.73576e-05
-5.53089e-06
2.2932e-05
6.8323e-06
0.000136404
9.39812e-05
2.09389e-05
1.8683e-05
-3.16135e-05
6.95548e-05
0.000116214
7.88724e-05
-1.20084e-05
2.49785e-05
8.34423e-05
0.000148996
3.55951e-05
1.75041e-05
0.000151011
-5.17468e-05
5.67827e-06
7.16957e-05
5.02795e-05
6.06023e-05
7.16792e-06
8.01801e-05
8.22491e-05
-8.03831e-05
4.41817e-05
0.000136175
4.09957e-05
4.82834e-05
7.92338e-05
3.67115e-05
-2.69158e-05
4.96678e-05
-1.15251e-07
5.11558e-05
4.20859e-05
-3.83083e-05
9.21623e-05
0.000106615
8.71841e-05
2.54085e-05
7.49612e-05
0.000101106
4.54686e-05
-4.47989e-06
-1.66914e-05
6.70486e-05
0.000119669
-2.34877e-05
9.00028e-05
-1.4795e-05
-3.90521e-05
-6.21425e-06
-8.99173e-05
5.22719e-05
0.000157961
2.40975e-05
9.1688e-05
-2.49448e-05
0.000157724
9.09191e-05
-3.16906e-06
9.47259e-05
3.90381e-05
0.00013097
-2.58209e-07
-6.85495e-05
2.66242e-06
7.39999e-05
0.00013342
5.79281e-05
2.02989e-05
3.31156e-05
8.04215e-05
4.36599e-05
1.22656e-05
7.49689e-05
5.09603e-05
4.32276e-05
-3.98804e-05
-3.4563e-05
4.04443e-05
2.44898e-05
0.00011572
6.60868e-05
1.8255e-05
8.13095e-05
1.99645e-05
-1.88102e-05
0.000119796
9.26161e-05
-2.24449e-06
3.77484e-05
2.03247e-05
6.79679e-06
4.46093e-05
-3.19164e-05
4.68967e-05
-1.15026e-05
-4.9841e-05
2.32959e-05
2.09622e-05
0.000160761
9.88225e-05
2.06404e-06
0.000137836
1.15243e-05
-3.11245e-05
0.000132419
1.78269e-05
2.91321e-05
0.000108428
-8.34581e-06
3.45047e-05
4.32306e-05
5.74649e-06
3.42713e-05
-5.27618e-06
1.75424e-05
7.67779e-05
2.50086e-05
0.000112709
-2.20691e-05
3.25856e-05
2.55223e-05
5.84621e-05
-6.12721e-05
0.000105448
0.000137296
2.50293e-05
4.32237e-05
7.45823e-05
0.000111578
-2.02681e-05
-8.13336e-06
8.7293e-05
-8.23226e-05
1.15577e-05
3.31807e-05
8.87688e-05
-7.06e-05
-3.18107e-05
5.65371e-06
1.04991e-05
7.98529e-05
4.14202e-05
7.20921e-05
0.000102554
7.46853e-05
2.48844e-05
0.000198125
8.16121e-05
-6.56997e-05
6.24199e-05
0.000201229
4.75225e-05
8.32758e-05
7.86665e-05
-1.63086e-05
5.95991e-05
0.000149169
4.39014e-05
3.83353e-05
-1.00757e-05
6.97708e-05
-5.98879e-05
5.34238e-05
6.86803e-05
8.57909e-05
6.81023e-05
0.000137439
0.000106097
-2.40526e-05
0.000111081
-0.00013128
0.000102691
9.90942e-05
-5.28728e-05
-3.79215e-05
8.69745e-05
0.000114878
0.000176991
3.40519e-05
7.95297e-05
5.67444e-05
-3.69137e-05
-1.51397e-05
8.69031e-05
6.86068e-05
6.22834e-06
4.16543e-05
2.36374e-05
2.60697e-05
0.000121307
-3.55705e-05
-2.05769e-05
2.75011e-05
5.94511e-05
8.97958e-06
1.84996e-05
8.6694e-05
-5.82665e-05
-3.07569e-07
2.65902e-05
-1.44099e-05
-2.21962e-05
-3.95468e-05
0.000128655
-4.29642e-06
2.10486e-05
-3.85131e-05
0.000102293
2.14376e-05
2.40525e-05
4.18612e-05
-0.000104899
2.47041e-05
-6.30283e-05
-2.51192e-05
-2.38868e-05
5.12259e-05
-2.60451e-05
-7.57639e-05
4.98934e-05
-6.60461e-05
-4.28995e-05
2.3341e-05
-5.99079e-05
-8.02728e-05
3.00235e-06
-4.24262e-05
4.66197e-06
1.08912e-05
-2.15751e-05
-4.06068e-06
-5.82074e-05
-6.74935e-05
-0.000106138
-1.79199e-05
-2.00456e-05
-5.72717e-05
-2.52763e-05
7.73009e-06
-3.07413e-05
-8.53871e-05
-3.53886e-05
-8.36095e-06
2.74415e-05
-7.95685e-05
-6.67485e-05
2.31334e-05
-0.000103178
-3.37879e-05
1.98339e-05
-8.20332e-05
-5.15868e-05
-4.38407e-05
8.67294e-06
3.55998e-05
-2.47126e-05
4.87443e-06
-0.000112385
-3.15172e-05
3.88798e-05
-3.39416e-05
-6.56133e-05
-4.11931e-05
-3.17378e-05
2.9823e-05
-2.85318e-05
-3.54565e-05
-2.34863e-05
-0.00011611
1.48105e-05
-3.37936e-05
4.56304e-05
-5.12685e-05
-5.72848e-05
-3.73453e-05
-3.01475e-05
-6.05667e-05
-1.00293e-05
-7.96341e-05
-0.000109192
1.21042e-05
-4.39815e-05
9.01753e-06
-1.84353e-05
1.72416e-05
-5.13538e-05
-1.04336e-05
4.76097e-05
-2.5494e-05
5.74086e-05
2.15834e-07
-3.24124e-05
-5.04442e-05
-8.22564e-05
2.84832e-05
2.44664e-05
-6.16948e-05
-0.000158637
-4.1698e-05
-6.56582e-08
-1.69135e-05
8.77352e-06
5.33131e-05
3.15579e-06
-1.07945e-05
2.47143e-05
-5.9657e-06
3.43227e-05
-2.73115e-05
-6.84732e-06
-1.89489e-06
-4.36434e-05
-0.000106617
-3.96518e-05
-2.96775e-05
-3.55599e-05
1.64221e-05
-5.91243e-05
-4.27192e-05
-1.0673e-06
-6.00005e-06
5.43522e-05
-3.54241e-05
-7.13794e-05
-7.13185e-05
4.01702e-05
1.15475e-05
-5.23519e-05
-1.11542e-05
9.64582e-06
3.1899e-05
-8.5775e-05
1.39616e-05
-6.13796e-05
-7.74185e-06
-3.4863e-05
-1.67098e-05
-4.5566e-05
-6.96027e-05
1.70253e-05
-4.88099e-05
-2.07967e-05
1.5982e-05
-1.0553e-05
-2.35449e-05
-1.2441e-05
-3.31041e-05
-4.60123e-05
-1.33575e-05
-4.2246e-05
-8.323e-06
-5.94475e-05
-7.82575e-05
8.69727e-06
-2.01981e-06
-8.38252e-05
1.0549e-05
-3.22359e-05
-4.36762e-05
-0.000117681
-8.72544e-06
-3.99577e-05
-3.83079e-05
-7.16749e-05
9.37027e-06
3.00054e-05
-1.7041e-05
-2.3999e-05
-1.85566e-06
-5.11225e-05
-2.02561e-05
-8.13486e-05
-6.40946e-05
3.62429e-05
-8.0271e-05
-7.56327e-06
2.37462e-05
2.21166e-05
-5.27811e-05
-2.42563e-06
3.60704e-05
-9.46566e-05
1.02372e-05
-2.21482e-05
3.97031e-05
-4.1351e-05
-2.55478e-05
-5.70109e-06
3.04059e-05
-6.90704e-05
-4.77679e-05
3.67502e-05
-4.79678e-06
2.05927e-06
-4.86566e-05
-0.000107547
-6.60241e-05
-2.6601e-05
-2.24797e-05
-9.32999e-06
-1.88574e-05
-0.00010145
6.3224e-06
3.6959e-05
4.61098e-06
-1.08492e-05
-2.36547e-05
-8.50842e-05
-3.90913e-05
4.81099e-05
-6.97724e-06
-7.51889e-05
-6.46281e-05
-4.37899e-05
3.0756e-05
-5.53511e-05
1.83145e-06
-5.12162e-05
9.71673e-05
1.17978e-05
-4.14071e-05
-5.22414e-05
-4.83994e-05
-4.73998e-05
3.21252e-05
-3.50829e-05
-7.29861e-05
1.69722e-06
-2.53876e-05
-1.98886e-05
4.50574e-06
-1.732e-05
7.05675e-05
5.70893e-05
-6.70666e-05
-3.48977e-05
-2.73383e-05
-7.02043e-05
-2.06067e-05
2.42675e-05
8.58861e-05
-8.70349e-05
6.93451e-06
-4.34535e-05
-3.62698e-05
6.9032e-05
3.75876e-05
-6.27585e-05
-4.99177e-06
2.55414e-05
-5.11212e-05
2.2625e-05
-1.34828e-05
-4.80209e-05
-1.98241e-05
3.0552e-06
3.73248e-05
3.4268e-05
-1.23483e-05
-2.31678e-05
-0.000132199
-1.66823e-07
-7.60646e-06
5.12582e-05
-7.35302e-06
-7.36319e-05
5.01703e-06
-3.30424e-05
-1.99105e-06
5.00258e-05
-7.79773e-06
-2.3389e-05
-8.48039e-06
1.05449e-06
-1.92296e-05
7.13234e-05
-5.15231e-05
7.82206e-06
3.11633e-05
6.53442e-05
-4.67902e-05
-2.90641e-05
-1.14909e-05
-2.49564e-05
-9.34287e-05
-2.04819e-05
3.51592e-05
4.8863e-05
3.64081e-05
-1.64527e-05
3.77694e-05
6.1458e-05
-4.75245e-05
4.48456e-05
4.40085e-05
9.82278e-06
-5.10863e-05
1.23074e-05
2.34438e-05
7.04303e-05
4.96684e-05
-3.57145e-05
2.25286e-05
5.27385e-06
-2.51161e-05
4.80087e-05
3.40398e-05
2.11629e-05
-2.89195e-05
-7.34262e-05
2.16751e-05
3.48728e-05
1.42108e-06
-4.63353e-05
1.81748e-06
-1.65715e-05
5.22439e-05
1.9271e-05
-4.25103e-05
-9.05946e-05
6.88434e-06
2.94284e-05
9.43278e-06
3.9076e-05
-4.01763e-05
2.79775e-05
-3.30706e-05
9.02759e-05
1.87061e-05
2.19358e-05
-2.38941e-05
3.89218e-05
7.9507e-05
-1.43028e-06
-1.07867e-05
-4.31228e-05
-5.63426e-05
3.65556e-05
5.69178e-06
-2.9766e-05
3.18502e-05
-3.75102e-05
-1.97684e-05
6.36962e-05
5.06411e-05
-4.80588e-05
-4.18772e-05
-9.31264e-06
-2.63562e-05
-1.33659e-05
5.09451e-05
7.41071e-05
-1.38805e-05
-5.52128e-05
-6.02386e-05
2.25467e-05
4.01654e-05
-3.56471e-05
4.6086e-05
6.04022e-05
1.00421e-05
-2.72852e-05
-6.84022e-05
1.03854e-05
-3.9066e-05
-6.67315e-05
1.89326e-05
-3.86647e-05
-7.26081e-05
1.55346e-05
3.44657e-05
-9.18214e-06
-2.52383e-05
3.49992e-05
6.71938e-05
-7.81426e-06
-2.34849e-05
1.90872e-05
-3.45567e-05
-3.24671e-06
3.17618e-05
-4.33623e-05
-4.44567e-05
-1.2916e-05
6.19071e-05
-1.54723e-05
-1.92423e-05
-9.33651e-07
1.07805e-05
-2.67862e-05
6.43282e-05
6.28643e-07
3.16111e-05
-3.45439e-05
-2.02106e-05
3.29815e-05
-8.92952e-06
-5.33776e-05
-6.58383e-05
-1.97741e-05
2.38302e-06
3.65474e-05
8.3677e-06
-1.87813e-06
1.48283e-05
-2.75738e-05
4.24775e-05
2.79526e-05
9.69111e-05
6.65832e-05
1.94267e-05
1.4567e-05
-1.36634e-05
5.9017e-05
5.77691e-05
-3.53307e-05
8.6556e-05
-1.88481e-05
-2.1022e-05
-5.39366e-05
1.12336e-05
-1.22987e-05
7.03163e-05
-1.07869e-05
6.14929e-06
5.77935e-05
3.47515e-05
-3.56394e-05
-5.85569e-06
4.38273e-05
2.99956e-05
1.48882e-05
3.09397e-06
-6.2997e-05
1.44137e-05
-9.3447e-05
4.10879e-05
-3.34161e-05
-7.29718e-05
6.78655e-06
-4.31382e-05
3.26061e-05
-5.40696e-05
-3.51893e-05
-7.3805e-06
-3.46785e-05
7.78155e-06
5.28588e-05
1.66988e-05
-1.61538e-06
7.61888e-05
-2.89641e-06
5.27895e-05
3.30993e-05
2.69052e-05
3.20118e-05
-4.14012e-05
-7.91214e-05
6.70389e-06
-3.71061e-05
3.38536e-07
3.12873e-05
2.55895e-05
4.62431e-05
-7.34488e-06
3.85572e-05
-1.82485e-05
8.60397e-05
-3.51759e-05
-2.42109e-05
-2.44786e-05
3.96875e-05
3.9636e-05
-5.59608e-06
-1.59823e-05
5.26491e-05
-3.12827e-05
-9.51323e-06
1.32087e-05
3.03076e-05
4.01442e-05
-6.213e-05
6.55779e-06
-4.02798e-05
7.68158e-05
-2.30572e-05
2.42749e-06
-2.3624e-05
-7.65757e-06
1.0553e-06
-7.58462e-05
1.89049e-05
4.24924e-05
2.73308e-06
-4.6881e-05
-0.000111356
2.32975e-05
1.92821e-05
1.66963e-06
4.11418e-05
-1.26259e-05
3.11492e-06
-2.15393e-05
-7.41893e-05
3.57798e-05
1.81666e-05
-4.43208e-05
1.38062e-05
2.49416e-05
-1.40071e-05
-5.45261e-05
-1.59669e-05
4.84828e-05
-4.49992e-06
-0.000139603
5.7974e-05
3.08062e-05
0.000100899
-3.7275e-05
3.82724e-05
1.96726e-05
-2.19456e-05
-3.16995e-05
-3.15026e-05
5.79789e-05
8.84748e-05
-9.06736e-06
-5.99886e-05
9.2187e-06
8.46374e-06
-1.87429e-08
-2.07846e-05
-3.90373e-05
0.000130275
-3.43213e-05
-4.70518e-05
5.37115e-05
-2.79665e-06
2.82284e-06
-3.79189e-05
-6.05407e-05
4.75427e-05
4.84363e-05
-1.75368e-05
3.74634e-05
-5.19102e-05
4.18174e-05
3.39496e-05
-6.99728e-05
2.73656e-05
3.88059e-05
1.67807e-05
-5.26785e-05
6.28692e-05
-2.19626e-05
-4.31009e-05
-7.4032e-06
-2.66789e-05
4.25468e-05
3.6495e-06
2.75733e-05
-4.73876e-05
-6.4373e-06
3.03099e-05
-2.263e-05
-8.19345e-05
-4.95821e-05
1.36229e-05
3.36366e-05
4.53531e-05
-3.78171e-05
6.72052e-05
-2.02059e-05
-6.23041e-05
4.74699e-05
4.62764e-05
1.24049e-05
3.82876e-05
2.15035e-05
5.87149e-05
-6.49998e-05
-4.25661e-05
-1.34123e-05
4.39062e-05
4.78699e-05
-2.23202e-05
-6.05179e-05
1.98348e-06
-2.43739e-06
-3.00121e-05
1.48923e-05
2.92044e-05
7.28876e-05
7.06629e-05
-3.58252e-05
-0.000140628
2.58461e-05
1.2035e-06
-2.88256e-05
-4.69696e-05
5.72426e-05
3.12586e-05
1.75566e-05
-0.000107817
-1.58476e-05
1.13324e-05
3.99522e-05
3.28136e-05
-4.30106e-05
3.20363e-05
3.74885e-05
-3.91932e-05
2.83309e-05
3.71942e-05
-1.37137e-05
3.56367e-05
-5.44155e-05
8.30449e-05
3.03241e-05
-1.94272e-05
-2.67293e-05
6.84276e-05
4.1218e-05
-2.91596e-05
3.35348e-05
3.92137e-05
3.68368e-05
-3.48375e-05
-2.81518e-05
1.41673e-05
3.52949e-05
-7.15668e-05
-2.1616e-05
4.60058e-05
3.6499e-05
2.31859e-05
-3.12359e-05
-7.13486e-05
2.25483e-05
-3.52728e-05
7.69856e-05
-4.16436e-05
-1.37865e-05
7.45144e-05
-5.4067e-05
4.00422e-06
-1.77847e-05
-5.58046e-05
2.01229e-05
5.95918e-06
5.05821e-05
6.3116e-05
-6.58249e-05
8.1419e-05
-4.32236e-05
-2.44334e-05
2.67201e-05
4.39398e-06
9.56748e-06
7.65547e-06
4.3913e-06
-4.22164e-05
2.17025e-05
1.01277e-05
-1.56356e-05
-7.88148e-05
-2.79716e-05
-7.33149e-06
2.62833e-05
6.22915e-06
2.384e-05
-8.04092e-06
5.2616e-05
3.0096e-05
-3.07953e-05
-8.6859e-05
1.14744e-05
3.8733e-05
1.1161e-05
-2.85618e-05
-9.12487e-06
-2.48104e-06
2.21183e-05
-3.22983e-06
2.53444e-05
2.25469e-05
3.20965e-05
-2.08738e-05
-3.06324e-06
6.05523e-06
-3.41353e-06
3.49666e-05
-2.44868e-05
5.34741e-05
1.96629e-05
1.27887e-05
-1.15684e-05
2.92526e-05
2.87057e-06
3.39588e-05
-1.87163e-05
-2.88594e-06
-6.90416e-05
2.46686e-05
-5.0388e-06
-1.26837e-05
2.05978e-05
-2.63404e-05
-2.66195e-06
-3.02469e-05
-7.38931e-05
-1.16543e-05
0.000124286
-9.6718e-05
2.30565e-05
4.08881e-05
1.12078e-05
1.89698e-05
2.29753e-05
-6.50398e-05
-1.85559e-05
-3.58942e-05
9.88785e-06
-2.25084e-05
-0.00011462
5.06439e-05
-0.000120174
-5.21552e-05
0.000129995
-2.85541e-05
-3.29318e-05
1.3981e-05
-3.08827e-06
-4.58409e-06
-6.87179e-05
5.01401e-07
2.54062e-05
-3.06807e-05
-4.83703e-05
-2.09834e-05
3.77453e-05
3.99076e-05
1.09903e-05
-3.37759e-05
2.43066e-05
4.91923e-05
4.58609e-05
-7.13919e-05
-6.57424e-05
-4.48687e-05
5.14663e-05
2.45101e-06
-1.54681e-06
-6.96711e-05
3.42377e-07
-1.04235e-05
6.89446e-06
-2.29039e-05
-2.35508e-06
-3.06222e-05
3.2741e-05
-3.22692e-06
-1.03374e-05
-2.52567e-05
2.84624e-05
9.52234e-05
-3.02622e-05
3.21714e-05
4.43812e-05
-4.54085e-05
-0.000101102
-3.30772e-05
0.00011101
6.25448e-05
-5.2828e-05
-0.000107186
-1.18129e-05
6.85669e-05
3.46114e-05
-5.4047e-05
-5.21386e-05
4.75179e-05
-4.06369e-05
-0.000119435
6.12028e-05
-1.81563e-05
-3.11728e-05
0.000105493
-4.54735e-05
-9.29438e-05
-5.38457e-05
9.50519e-06
-5.54989e-05
1.67226e-05
4.28152e-06
-7.23695e-05
6.52485e-06
4.59248e-05
6.777e-06
-2.06684e-06
5.32218e-05
2.83372e-05
-3.75982e-05
-4.85515e-05
0.000104193
-1.62804e-05
-5.72787e-06
-2.96998e-05
-2.67266e-06
-4.58122e-05
8.22789e-06
-1.31114e-05
-4.38883e-05
-3.36708e-05
-5.49549e-05
4.80604e-05
-3.43903e-05
5.50932e-05
-3.26772e-05
-2.49939e-05
-9.60904e-06
3.26964e-05
-4.34385e-05
8.21737e-05
3.99048e-06
1.01068e-05
-2.64166e-05
-1.68511e-06
5.18316e-05
-5.05245e-05
7.65338e-05
-2.69972e-05
-2.84477e-05
5.25336e-06
1.91294e-05
5.75272e-05
-1.55069e-05
1.41475e-05
1.54795e-05
9.67545e-05
-2.60591e-05
2.79723e-06
-6.86492e-05
-4.36394e-06
5.35545e-06
-6.22938e-07
-1.12271e-05
2.76115e-05
-7.0645e-05
2.38864e-05
3.64644e-05
-5.86105e-06
-1.47321e-05
5.85361e-05
-1.46381e-06
5.0501e-07
-8.36421e-06
-6.68819e-05
-7.4585e-06
-5.66776e-05
5.49142e-05
-1.55681e-05
-6.5117e-05
1.93968e-05
-2.50094e-05
1.49551e-05
4.44497e-05
-8.87818e-06
-5.64917e-05
-7.07046e-05
-8.34151e-06
-2.963e-05
-2.15298e-06
-1.83218e-05
-1.89315e-06
-0.000102778
8.74826e-06
3.24821e-05
3.07962e-05
-0.000103662
-3.61556e-05
2.02423e-05
8.39119e-05
4.75289e-06
-1.31457e-05
3.1969e-05
7.1479e-07
-3.71365e-05
-7.51381e-05
-6.92124e-05
-2.21236e-06
-7.097e-05
1.36683e-06
-4.37516e-05
5.21007e-05
-3.20333e-05
-2.11232e-05
9.38226e-06
-1.06089e-06
4.85103e-06
-2.59294e-05
5.72976e-05
-2.03843e-05
4.02207e-05
1.71228e-05
-4.36114e-05
4.79119e-06
-4.099e-05
-3.49479e-07
2.30946e-05
-3.31625e-05
1.34483e-05
1.23587e-05
-2.61042e-05
-4.63808e-05
1.17682e-05
-4.40202e-05
0.000100773
4.16171e-05
5.95757e-05
5.72752e-06
3.63588e-06
3.7217e-05
-2.83869e-05
-2.65329e-05
-3.87039e-05
-3.32444e-05
-2.94566e-06
-4.83426e-06
-7.42385e-05
-9.21183e-05
-4.12929e-05
9.36042e-05
1.79692e-05
2.4614e-05
5.07893e-05
-3.90918e-05
-4.86936e-05
-6.07776e-05
2.91872e-05
-7.01528e-05
2.39775e-05
5.71003e-05
1.43817e-05
-8.54445e-05
6.48921e-05
5.64079e-06
1.15004e-05
-0.000120717
5.3374e-05
7.36077e-05
5.39131e-06
1.38737e-05
1.18411e-05
-9.65106e-06
3.66953e-05
-3.0343e-05
4.7182e-05
6.1725e-05
-4.68025e-06
-4.04324e-05
-2.984e-05
4.83391e-06
-1.19186e-06
4.36949e-05
-1.84961e-06
-1.13775e-05
-1.70614e-05
7.82476e-05
-4.58397e-06
1.7914e-05
-3.62848e-05
-7.78633e-05
7.38349e-05
-9.19306e-05
-5.20796e-06
2.09284e-05
2.30665e-06
7.05891e-05
3.83818e-05
7.42124e-06
5.50144e-05
-1.01448e-05
4.60943e-05
-1.68376e-05
-5.88746e-05
-4.91899e-05
5.14225e-05
5.45877e-05
-1.98534e-05
5.81008e-05
3.02002e-05
1.38802e-05
2.24961e-05
6.25567e-05
6.90157e-06
-8.80082e-05
-1.3425e-05
-5.00772e-06
4.87003e-05
5.99253e-05
6.30912e-05
1.42644e-06
2.14428e-05
-2.66379e-05
-9.90415e-06
-6.22045e-05
-1.60282e-05
3.25949e-05
-3.85358e-05
-1.90419e-05
5.31541e-05
-2.28164e-05
1.54102e-05
-4.23555e-05
-5.64847e-07
-5.11479e-05
-1.07915e-05
-0.000114607
2.06346e-05
1.91703e-05
7.2854e-05
2.73273e-05
-4.94904e-05
5.0578e-05
5.27875e-05
6.41989e-05
-7.99028e-06
4.43963e-05
-4.86517e-05
-2.58873e-05
-3.12888e-05
9.76643e-05
-4.46027e-05
-4.87091e-05
2.70447e-05
-5.04586e-05
1.36548e-05
-9.01835e-05
-0.000131355
6.04792e-05
5.67491e-05
-1.70097e-05
2.47725e-05
-9.10833e-06
5.16697e-05
-8.06586e-05
3.82905e-05
3.78342e-05
1.59066e-05
-7.9755e-06
-6.65535e-06
3.57417e-05
3.13771e-05
-9.32615e-05
-4.72956e-05
-9.3808e-05
-4.97696e-05
6.84748e-05
-3.54392e-05
9.14512e-06
-3.66227e-05
3.8721e-05
1.69338e-05
4.47608e-05
-5.40495e-05
2.94941e-05
6.61317e-05
1.22413e-05
-6.6429e-05
1.13377e-06
1.48162e-05
-1.36934e-05
6.08945e-05
-9.09436e-07
7.89309e-05
9.09728e-06
5.2616e-05
-9.66361e-05
3.41138e-05
6.60517e-06
-1.27823e-05
-4.43453e-05
-2.06707e-05
3.15066e-06
-9.30391e-07
-6.30607e-05
-0.000100798
-4.1587e-05
-9.15085e-05
-4.81863e-05
5.62918e-05
-1.52455e-05
-5.22907e-05
-2.41199e-05
-1.08287e-05
-4.57689e-05
-4.23095e-05
1.1905e-05
2.83609e-05
-1.41363e-05
-5.28246e-05
-6.13481e-05
1.77321e-05
1.07328e-05
-2.08273e-05
5.96307e-05
1.79035e-06
2.51199e-05
-2.36349e-05
5.88672e-05
3.18961e-05
4.76112e-05
-7.31891e-05
7.22463e-05
-0.000100922
-6.24103e-06
6.49316e-05
8.48889e-06
3.23066e-05
-3.30713e-06
-4.32205e-05
2.37802e-06
1.9997e-05
-1.27292e-05
9.59379e-06
3.61399e-05
2.75425e-05
6.9214e-05
-2.72342e-06
-6.32239e-05
-6.14556e-06
-7.61077e-06
-1.02113e-05
4.45035e-05
5.2012e-06
2.67308e-05
-6.62985e-06
-4.79852e-06
-2.94803e-05
1.43553e-05
5.69026e-06
6.79196e-05
9.01171e-06
3.43912e-05
1.84248e-05
1.29043e-05
-4.46524e-05
3.45928e-05
3.36542e-05
1.93855e-06
-1.88097e-05
4.46873e-05
-5.23892e-05
6.75363e-05
7.7465e-05
6.37199e-06
8.13849e-05
-3.18106e-05
2.20669e-05
-1.73566e-05
-2.87807e-05
-6.8658e-05
1.19234e-05
2.4791e-05
1.23704e-05
-3.48676e-05
2.16778e-05
-2.20753e-05
-3.52517e-06
1.23347e-05
1.70933e-06
2.97123e-05
-6.88564e-05
-1.33738e-05
9.18964e-05
-3.43516e-05
1.47282e-05
-1.23635e-05
4.94563e-05
2.42062e-05
-4.44687e-05
5.05939e-05
0.000106778
9.66929e-05
6.52506e-05
8.90112e-07
-7.20646e-06
-1.14562e-05
6.66905e-05
-5.44789e-06
4.01794e-05
-2.33976e-05
4.1756e-05
-3.41277e-05
-2.13976e-05
6.28096e-06
-2.6264e-05
3.58219e-05
-8.93138e-05
4.69467e-05
-3.57555e-05
3.30252e-05
2.3464e-05
-9.97123e-05
2.2134e-05
3.5702e-05
-1.87466e-05
2.13261e-05
-6.78237e-05
2.71617e-05
-5.16976e-05
5.68146e-05
4.88441e-05
-1.74805e-05
3.80416e-05
4.54169e-05
1.17877e-05
-8.37934e-06
2.07494e-05
-2.05638e-05
5.28253e-05
-7.57063e-05
-4.26266e-05
-7.67317e-06
2.04984e-05
-1.54353e-05
-3.12325e-05
1.17398e-05
6.21653e-05
4.88081e-05
4.33612e-06
-0.00012757
-5.02239e-05
-6.86673e-05
-6.60999e-05
3.09136e-05
7.6151e-05
-7.01353e-05
-7.02974e-06
9.28447e-06
4.82404e-05
3.83949e-06
8.47294e-06
-6.75755e-05
-1.85829e-05
1.21738e-05
-8.66759e-06
-3.19529e-05
-1.4283e-05
3.18396e-06
7.33044e-06
1.82411e-05
2.56521e-05
-6.78839e-05
-4.71412e-06
3.49286e-05
-5.05329e-05
1.07938e-05
-1.50143e-05
-1.63049e-05
-2.95392e-05
9.53889e-05
2.63901e-05
-1.76688e-05
-2.15017e-05
-1.27989e-05
8.03289e-06
-1.3581e-05
2.63902e-05
-7.18562e-06
-1.90847e-05
2.17274e-05
5.39324e-05
-9.03428e-05
5.79038e-05
-1.44778e-05
-1.46052e-05
-3.83225e-05
-4.54385e-05
2.61615e-05
5.74812e-05
2.07163e-05
1.80582e-05
2.61944e-05
-7.22194e-06
-2.65968e-05
2.38712e-05
-3.81793e-05
-3.29994e-05
2.86617e-05
4.19572e-06
5.34141e-05
-1.2902e-05
-4.54637e-06
9.10494e-05
1.63324e-05
1.6914e-05
-4.63271e-05
3.55743e-05
-3.91718e-05
2.2946e-05
1.72228e-05
3.0857e-06
6.80585e-05
6.72813e-05
-1.70235e-05
-7.54709e-06
4.55863e-05
-1.23875e-05
-6.61286e-06
0.000122596
3.26284e-05
1.82124e-05
2.495e-05
-5.22536e-05
-2.22393e-05
-5.70167e-05
1.30432e-06
7.6904e-06
2.41784e-05
1.07717e-05
-5.2068e-05
1.76704e-05
6.44933e-05
-6.11885e-05
5.44079e-05
-4.49317e-05
-7.05207e-05
6.23032e-06
3.27922e-05
4.70879e-05
1.32702e-06
1.32953e-05
-7.78601e-05
-2.81829e-05
-6.89283e-06
0.000112601
3.68475e-05
-3.34257e-05
4.85627e-05
3.18348e-05
1.1489e-05
6.94895e-05
0.00013327
-7.38595e-05
-4.20364e-05
-1.68965e-05
2.04113e-05
8.13231e-06
-1.95543e-05
3.47553e-05
5.05915e-05
-6.30392e-05
-4.22692e-05
1.79627e-05
5.7035e-05
-6.6706e-07
2.83981e-05
-3.47802e-05
-8.23168e-05
-3.16927e-05
-5.51023e-05
-1.69483e-05
6.43991e-05
-5.57774e-05
5.25214e-05
-0.00011234
-7.1065e-05
-1.52239e-05
-1.60272e-05
-3.59295e-05
5.28325e-05
4.40276e-05
-4.75498e-06
-6.05781e-05
-2.0325e-05
1.72122e-05
2.40916e-05
-2.15002e-05
-3.80279e-05
1.84211e-05
-5.22973e-05
-1.48038e-05
-9.04265e-05
-1.86136e-05
-1.40986e-05
0.000121307
-2.54703e-05
5.25207e-05
3.79472e-05
3.11936e-05
-3.85311e-05
-5.10295e-06
-4.49669e-05
2.62952e-05
1.12429e-05
-1.86057e-05
1.74426e-05
-3.76219e-05
8.71113e-06
-3.17958e-05
7.14649e-05
-7.47021e-05
0.000101809
5.19644e-05
3.18054e-05
1.94154e-05
4.63661e-05
-3.00491e-06
1.62398e-05
7.99991e-05
3.67605e-06
-1.37991e-05
-5.21089e-05
-5.62186e-05
2.68226e-05
-3.78017e-05
-4.78227e-05
2.88635e-05
-2.68994e-05
-1.16543e-05
-5.02804e-05
3.10768e-05
-2.00592e-05
3.81086e-05
-8.71744e-05
-4.69049e-05
1.67191e-05
4.92432e-05
9.12859e-06
1.42632e-06
-6.69423e-05
-7.27299e-05
-1.43617e-05
-9.74443e-06
-1.56979e-05
2.67383e-05
-9.21221e-05
-5.88647e-05
-1.25875e-05
5.106e-05
-8.97492e-05
7.86015e-05
1.30901e-05
1.51683e-05
-0.000114672
-4.19708e-05
1.06478e-05
8.84153e-05
-6.75302e-06
-6.93044e-06
1.08078e-05
-9.15201e-05
-1.49584e-05
1.07782e-05
5.18088e-05
-3.28289e-05
4.25936e-05
9.43081e-06
7.85338e-07
4.03606e-05
-3.83507e-06
2.6673e-05
-2.21871e-05
6.11646e-07
2.16439e-06
1.83089e-05
-2.01631e-05
-7.52343e-05
-8.20156e-05
-4.08833e-05
3.06886e-05
3.11453e-05
-1.76034e-05
-1.14895e-05
3.87506e-05
9.27446e-06
1.17533e-05
-4.44879e-05
-5.27485e-05
-4.26526e-05
9.60722e-05
-3.9107e-05
-6.17561e-05
-4.51249e-05
4.72018e-06
-4.15781e-05
-1.74821e-06
2.57664e-05
4.81142e-05
-3.50766e-05
2.89143e-05
3.42634e-05
2.19487e-05
-2.03149e-05
-2.84291e-05
2.95845e-05
6.23253e-05
1.8149e-05
-1.77092e-05
-4.22897e-05
-3.51807e-06
6.32221e-05
3.54636e-06
7.63184e-06
-5.29399e-06
1.01697e-05
2.74982e-05
2.91363e-05
-2.60754e-05
-5.974e-05
8.67879e-05
3.2931e-05
-1.45726e-05
-1.42367e-05
5.72904e-05
3.84264e-06
9.8189e-05
0.000121367
-2.85937e-05
2.4998e-05
7.872e-06
-1.86712e-05
-1.70149e-05
-7.32375e-05
0.00011208
-1.25973e-05
-6.01779e-05
7.86223e-06
3.08842e-05
9.78319e-06
7.8408e-06
1.71362e-05
4.84288e-08
-2.67228e-05
-2.56811e-05
-4.13368e-05
-4.55838e-05
-1.76238e-05
-7.76595e-06
-4.82694e-05
7.13976e-05
1.64241e-05
3.01735e-05
-3.19596e-05
1.39847e-05
-1.39405e-05
-1.55899e-05
4.4764e-06
-1.65858e-05
8.27656e-05
5.56021e-05
5.67269e-06
3.54118e-05
2.86219e-06
-1.63059e-05
2.07492e-05
9.63232e-06
-1.45014e-05
-4.88878e-05
-4.07483e-05
-9.69192e-06
4.12579e-05
-2.15803e-05
-3.41525e-05
5.64967e-05
-1.37317e-05
-5.04195e-05
3.84748e-05
-2.3363e-05
-1.19582e-06
-5.9447e-05
5.95278e-06
6.40075e-05
-7.3972e-05
-2.23713e-05
-4.28897e-06
-7.43156e-05
-1.58099e-05
5.60062e-05
-2.41016e-05
5.20145e-05
4.58726e-05
-3.16428e-05
0.000122278
2.89963e-05
1.20708e-05
-2.74089e-05
-3.4468e-05
-3.20198e-05
5.98456e-05
4.27909e-05
-2.54267e-05
-1.62862e-05
4.25264e-05
4.55983e-05
-7.08053e-05
-4.53838e-05
-1.75915e-05
6.00135e-05
3.70806e-05
4.36974e-05
-7.64534e-06
2.17553e-05
1.48434e-05
1.4781e-05
3.49518e-05
1.44989e-05
-7.17351e-05
5.90794e-05
3.93533e-05
-1.62122e-05
4.74529e-05
-1.8456e-05
-3.84229e-05
8.4609e-05
5.7899e-05
5.29932e-05
-2.82945e-05
-1.40258e-05
-3.38187e-06
6.56863e-05
1.70169e-05
1.81659e-05
-1.4518e-05
-3.22154e-05
8.30169e-06
5.70649e-05
3.72087e-05
6.89621e-05
3.92867e-05
3.07863e-05
-1.59347e-05
4.17505e-05
8.47271e-06
-3.21823e-05
-1.07551e-05
-1.45924e-05
5.39318e-05
1.2189e-05
2.11236e-05
-2.64745e-05
1.1299e-05
-2.39075e-05
-1.44514e-05
1.09987e-05
-7.73463e-06
4.69037e-06
1.68592e-05
6.67057e-05
1.57992e-05
-0.00010758
-8.24991e-05
6.5231e-06
-5.85073e-05
5.17323e-05
1.84863e-05
1.66772e-05
-7.07679e-05
5.68549e-06
-1.86225e-05
-4.33438e-05
5.83283e-05
-4.15362e-05
-7.76742e-05
-1.33202e-05
-3.7475e-05
-1.10012e-06
5.06308e-05
3.43448e-05
5.21399e-05
2.95315e-05
4.71439e-05
-2.02374e-05
0.000134812
5.51657e-05
-3.82703e-05
-1.12217e-05
0.000111733
1.12853e-06
-1.38336e-05
-2.07331e-05
-1.05343e-05
5.75127e-06
2.51086e-05
-6.47183e-05
1.22306e-06
0.00011825
2.02318e-05
-6.96788e-05
-8.34578e-05
9.06893e-05
4.29547e-05
-6.09941e-05
-2.33646e-06
4.52378e-06
-2.48621e-05
-7.49839e-05
-6.3011e-06
3.39793e-05
6.28867e-05
-2.65904e-06
-2.97547e-05
-6.67732e-05
-1.08317e-05
7.42357e-06
3.0318e-05
-1.26915e-05
1.26478e-05
-3.24749e-05
-1.54035e-05
4.65966e-05
-6.0664e-07
-7.33231e-05
-3.61172e-05
3.19349e-05
5.07119e-05
5.52047e-05
-3.86608e-05
-2.71014e-05
-1.73191e-06
4.00434e-05
-1.28825e-05
1.15237e-05
2.7539e-05
1.51001e-05
2.02362e-05
3.27821e-05
-0.000103584
-2.37203e-05
5.62993e-05
-3.56047e-05
-8.56423e-05
0.000101617
-2.90702e-05
2.15791e-05
-5.19505e-05
6.29353e-06
-5.9558e-05
3.80178e-06
-4.01159e-05
2.21789e-05
-9.73791e-06
6.35828e-05
-2.76127e-05
-2.54391e-05
9.06729e-05
-5.55892e-05
-3.51445e-05
1.47808e-05
-2.30935e-05
3.46855e-05
-4.10142e-05
-1.09321e-05
2.98405e-05
3.45646e-05
-4.78463e-05
-5.78742e-05
-3.72991e-05
3.58617e-05
-1.02356e-05
-1.76753e-05
3.83472e-05
4.55033e-06
-3.07258e-05
-6.31746e-05
6.19027e-06
-5.68881e-05
0.000120349
-0.000117729
-6.80874e-05
1.01873e-05
-1.0216e-05
2.8216e-05
-1.96022e-05
-6.25616e-06
3.50745e-05
9.93139e-06
-5.96484e-05
5.40572e-05
-2.97576e-05
-7.2585e-07
-9.39064e-06
-2.64806e-05
5.89004e-05
9.35845e-05
7.95008e-05
-1.6892e-05
-6.82934e-05
-7.77042e-05
4.75623e-05
-1.31771e-06
1.17447e-05
5.16311e-05
-6.31508e-05
2.21429e-05
3.45717e-05
-3.89623e-05
4.9273e-05
9.85363e-06
-2.7369e-05
-7.1801e-05
-2.20758e-06
9.41241e-06
5.68599e-05
-2.01403e-05
-8.62172e-06
7.08969e-06
9.57865e-07
-2.91982e-05
-3.6772e-05
9.86969e-07
-7.08329e-06
-7.7707e-05
4.07123e-05
2.28044e-05
-2.33529e-05
-2.82726e-05
6.35593e-06
-3.10614e-05
-2.37784e-05
5.87653e-05
3.77757e-05
-8.88546e-05
1.88744e-05
2.82151e-05
2.42071e-05
-1.97269e-05
3.13721e-05
2.67725e-05
-2.78912e-05
-1.14413e-05
4.39798e-05
-1.84723e-05
6.28957e-06
-9.41579e-06
3.67076e-05
-1.65389e-05
-2.21913e-05
-3.26345e-05
2.11542e-05
-9.05286e-05
-2.25269e-05
7.17794e-06
-1.67808e-05
-5.12948e-05
-4.15266e-05
3.02575e-05
1.87578e-05
1.34518e-05
6.79975e-05
0.000103677
-2.68694e-05
-5.62216e-05
-7.36816e-06
-8.72929e-06
-8.22125e-06
-0.000119192
3.07657e-05
9.97081e-05
7.93557e-05
2.35236e-05
2.89537e-06
3.23565e-05
6.61949e-06
-1.27407e-05
-1.12371e-05
3.50201e-06
6.08943e-05
-6.73463e-06
5.99329e-05
-9.10787e-06
-4.93439e-05
-1.25009e-05
-1.79213e-05
3.41781e-05
-3.37978e-05
7.39528e-06
5.94535e-05
0.000102923
1.58969e-05
2.07406e-06
6.60843e-05
-5.49522e-05
-6.42204e-05
4.83636e-06
5.86057e-05
-3.5362e-05
-0.000113618
-3.21867e-05
8.25245e-06
3.03729e-05
4.09433e-06
1.25882e-05
-2.57909e-05
4.02983e-06
-1.99425e-05
-0.000115459
-8.30286e-06
2.34322e-05
1.67678e-05
-9.89938e-06
-1.77937e-05
3.41062e-05
5.38377e-05
-8.89762e-07
-3.26859e-05
-1.44828e-05
1.084e-05
2.86296e-05
1.41957e-05
-1.13221e-05
4.36335e-05
-9.70042e-06
4.36598e-05
-6.26035e-06
-6.49593e-05
8.33396e-05
7.37398e-06
-2.33592e-05
-5.29964e-05
8.2195e-06
-7.67078e-05
-5.47341e-05
1.69987e-05
-2.35285e-05
6.9304e-05
-5.89243e-05
-1.58965e-05
-3.79677e-06
-4.3655e-05
1.74984e-06
6.90925e-06
-1.56339e-05
-1.26812e-05
-6.3132e-06
-2.87475e-05
6.35835e-05
-1.27365e-05
2.98874e-05
-1.94596e-05
0.00010666
-6.87315e-05
2.64263e-06
7.97827e-05
-7.28983e-05
-2.11631e-05
-1.82877e-06
-5.65464e-06
-3.07189e-05
-1.66357e-07
6.13109e-05
-4.53608e-05
-3.93705e-06
2.74233e-05
5.10012e-05
6.30179e-06
2.15224e-05
-5.93145e-05
-4.52379e-05
-4.56915e-05
-4.39745e-05
-2.38917e-05
-5.03429e-05
-2.24273e-05
-6.2891e-05
1.11951e-05
0.000117077
1.0884e-05
1.60304e-06
7.11565e-06
-1.24837e-05
-9.79607e-05
1.17281e-05
-2.4335e-05
-6.52873e-05
-4.57342e-05
9.77496e-05
-2.84502e-05
2.46854e-05
2.89709e-05
-3.39514e-05
9.19257e-05
-5.06385e-05
-3.13991e-05
4.17815e-07
2.26256e-05
5.23941e-05
-4.63505e-05
3.01993e-06
-7.25875e-05
3.62427e-05
4.53799e-05
5.10279e-05
4.96123e-05
1.14623e-05
6.3146e-06
1.38573e-05
1.41456e-06
1.35631e-05
-5.94298e-05
-5.2609e-05
-3.14449e-05
3.68985e-05
-1.13028e-06
4.39363e-06
1.65971e-05
1.01095e-05
-4.56732e-05
-5.67071e-05
-2.16058e-05
3.75346e-06
3.02105e-05
2.47177e-05
-3.7055e-05
-4.68157e-05
-8.03268e-05
-3.89207e-05
8.46453e-05
4.35197e-05
1.98975e-05
-8.17585e-06
-6.95721e-06
-5.38758e-05
3.58439e-05
-6.18506e-05
7.90434e-05
-1.59483e-05
-3.9917e-05
-6.26174e-05
3.51216e-05
5.15329e-05
1.97079e-06
-3.47081e-06
-9.94932e-06
5.45724e-05
-4.35939e-05
-3.20034e-05
3.58506e-05
-2.33704e-05
-7.19307e-06
3.16272e-05
-2.36782e-05
4.79085e-05
6.11597e-05
-1.50187e-05
5.83362e-05
-1.60109e-05
-5.55501e-05
-4.11184e-05
3.92951e-05
8.73673e-05
-9.01858e-06
2.39066e-05
5.31232e-05
-2.11748e-06
3.75923e-05
-6.11143e-05
-5.37822e-05
4.75652e-05
-2.97432e-05
-7.41595e-05
-1.30141e-05
3.82878e-06
-4.95897e-05
-1.00627e-05
1.48062e-05
3.36766e-06
-4.77561e-05
-3.26617e-05
4.77966e-06
4.40956e-05
4.04303e-05
-4.65777e-05
-4.65791e-05
9.95421e-06
6.58097e-05
1.77758e-05
-1.76018e-05
-0.000102062
4.74709e-05
-2.01666e-05
-7.77561e-06
-8.79925e-06
4.50333e-05
-5.59178e-06
-5.7005e-05
-1.93104e-05
-3.39666e-05
4.75906e-05
2.16512e-05
-2.22096e-05
-2.47787e-05
-2.54153e-05
-5.89096e-06
-1.15659e-05
-4.13187e-05
-4.02359e-05
1.20606e-06
-4.48265e-05
2.04253e-05
3.38047e-06
-2.82913e-05
3.01641e-05
9.34838e-06
-6.71307e-05
-4.05738e-05
7.09333e-05
-3.39556e-05
-2.67515e-05
2.17739e-05
1.56354e-05
1.44397e-05
-8.9017e-06
-1.19935e-05
1.44325e-05
8.70283e-05
-9.6974e-07
1.24224e-05
-5.5928e-05
-1.92777e-05
3.90811e-05
3.06987e-06
-4.05497e-05
7.5663e-06
6.72848e-05
3.9499e-05
-7.47538e-05
-3.48644e-05
2.46891e-05
-5.16153e-05
3.7672e-06
-4.08547e-05
-1.83195e-05
8.32831e-05
-3.53504e-05
-3.56364e-05
-9.10205e-06
-2.37034e-05
-7.61579e-05
-4.31737e-05
-3.44522e-05
3.03315e-05
-5.93207e-05
-4.43425e-05
-1.38482e-05
2.8014e-05
4.43454e-05
7.11251e-06
-4.18164e-07
-3.37958e-05
5.63173e-05
4.62115e-05
-7.51622e-05
0.000106831
-4.85464e-05
-1.38168e-05
-8.41566e-07