# vtk DataFile Version 1.0
Net Charge Density
ASCII
DATASET STRUCTURED_POINTS
DIMENSIONS 256 128 1
ORIGIN 0 0 0
SPACING 0.15625 0.15625 1
POINT_DATA 32768
SCALARS rhonet float
LOOKUP_TABLE default
-3.89642e-06
-9.51272e-05
0.000144791
9.63219e-05
3.56843e-05
0.000120451
-0.000118445
9.18586e-05
0.000154216
2.28991e-05
-3.75607e-05
0.000108725
0.00010382
7.94453e-05
0.000109346
4.99608e-05
8.77432e-05
0.000140235
4.0588e-05
-6.79101e-05
-6.4068e-06
0.00014186
0.000144767
4.77823e-05
3.72679e-05
2.07428e-05
7.74218e-05
9.0589e-05
-1.3522e-05
-7.27422e-05
5.23025e-05
3.97235e-05
4.3669e-05
6.90079e-05
1.24413e-05
0.000171713
1.68073e-05
7.28726e-05
7.73577e-05
-5.53066e-06
2.2932e-05
6.83242e-06
0.000136404
9.39812e-05
2.0939e-05
1.8683e-05
-3.16135e-05
6.95542e-05
0.000116214
7.88724e-05
-1.20079e-05
2.49783e-05
8.34424e-05
0.000148995
3.55955e-05
1.75042e-05
0.000151011
-5.17478e-05
5.67839e-06
7.16955e-05
5.02798e-05
6.06021e-05
7.16839e-06
8.01797e-05
8.22491e-05
-8.03834e-05
4.41818e-05
0.000136175
4.0996e-05
4.8283e-05
7.92337e-05
3.67113e-05
-2.69163e-05
4.96672e-05
-1.15135e-07
5.11555e-05
4.20861e-05
-3.83077e-05
9.21618e-05
0.000106615
8.71844e-05
2.54088e-05
7.4962e-05
0.000101106
4.54683e-05
-4.48001e-06
-1.66909e-05
6.70485e-05
0.000119669
-2.34877e-05
9.00027e-05
-1.47953e-05
-3.90528e-05
-6.21448e-06
-8.99172e-05
5.22722e-05
0.000157961
2.40973e-05
9.16884e-05
-2.49443e-05
0.000157723
9.09187e-05
-3.16917e-06
9.47258e-05
3.90384e-05
0.00013097
-2.58209e-07
-6.85495e-05
2.66265e-06
7.39995e-05
0.00013342
5.7928e-05
2.02988e-05
3.31161e-05
8.04209e-05
4.36595e-05
1.22652e-05
7.49689e-05
5.09603e-05
4.32273e-05
-3.98809e-05
-3.45639e-05
4.04443e-05
2.44903e-05
0.00011572
6.60873e-05
1.82549e-05
8.13097e-05
1.99641e-05
-1.88099e-05
0.000119797
9.26161e-05
-2.24402e-06
3.77488e-05
2.03245e-05
6.79656e-06
4.46091e-05
-3.19162e-05
4.68966e-05
-1.15025e-05
-4.98402e-05
2.32955e-05
2.09621e-05
0.000160761
9.88222e-05
2.06346e-06
0.000137836
1.15242e-05
-3.11238e-05
0.000132418
1.78271e-05
2.91321e-05
0.000108428
-8.34558e-06
3.45052e-05
4.32305e-05
5.74649e-06
3.42712e-05
-5.27641e-06
1.75427e-05
7.67777e-05
2.50085e-05
0.00011271
-2.20693e-05
3.25853e-05
2.55231e-05
5.84618e-05
-6.12724e-05
0.000105448
0.000137296
2.50291e-05
4.32237e-05
7.45819e-05
0.000111579
-2.0268e-05
-8.13336e-06
8.72934e-05
-8.23224e-05
1.15581e-05
3.31806e-05
8.87692e-05
-7.05997e-05
-3.1811e-05
5.65348e-06
1.04991e-05
7.98536e-05
4.14206e-05
7.20927e-05
0.000102554
7.46857e-05
2.48839e-05
0.000198125
8.16118e-05
-6.56995e-05
6.242e-05
0.000201229
4.75225e-05
8.32754e-05
7.8667e-05
-1.63089e-05
5.95992e-05
0.000149169
4.39011e-05
3.83359e-05
-1.0076e-05
6.97708e-05
-5.98875e-05
5.34237e-05
6.86797e-05
8.57909e-05
6.81024e-05
0.000137439
0.000106096
-2.4052e-05
0.000111081
-0.000131281
0.000102691
9.90944e-05
-5.28726e-05
-3.7921e-05
8.69746e-05
0.000114877
0.000176991
3.40522e-05
7.95299e-05
5.6745e-05
-3.6914e-05
-1.514e-05
8.69035e-05
6.86066e-05
6.22869e-06
4.16543e-05
2.36372e-05
2.60695e-05
0.000121308
-3.557e-05
-2.05776e-05
2.7501e-05
5.9451e-05
8.98005e-06
1.84992e-05
8.66943e-05
-5.82666e-05
-3.0722e-07
2.65903e-05
-1.44092e-05
-2.21962e-05
-3.95465e-05
0.000128655
-4.29573e-06
2.10486e-05
-3.85132e-05
0.000102294
2.14381e-05
2.40527e-05
4.18612e-05
-0.000104899
2.47046e-05
-6.30284e-05
-2.51194e-05
-2.38867e-05
5.12264e-05
-2.60443e-05
-7.57639e-05
4.98935e-05
-6.60464e-05
-4.29e-05
2.33415e-05
-5.99091e-05
-8.0273e-05
3.00235e-06
-4.24263e-05
4.66185e-06
1.08914e-05
-2.1575e-05
-4.06033e-06
-5.82077e-05
-6.74939e-05
-0.000106138
-1.79203e-05
-2.00463e-05
-5.72719e-05
-2.5277e-05
7.72998e-06
-3.07411e-05
-8.53869e-05
-3.5389e-05
-8.36095e-06
2.74419e-05
-7.95682e-05
-6.67485e-05
2.31335e-05
-0.000103178
-3.37882e-05
1.98339e-05
-8.20329e-05
-5.15869e-05
-4.38411e-05
8.67294e-06
3.55998e-05
-2.47128e-05
4.87408e-06
-0.000112384
-3.15172e-05
3.88791e-05
-3.39416e-05
-6.56131e-05
-4.11932e-05
-3.17376e-05
2.98233e-05
-2.85322e-05
-3.54567e-05
-2.34863e-05
-0.00011611
1.48104e-05
-3.3793e-05
4.56306e-05
-5.12686e-05
-5.7285e-05
-3.73459e-05
-3.01476e-05
-6.05674e-05
-1.00287e-05
-7.96341e-05
-0.000109192
1.21046e-05
-4.39818e-05
9.01707e-06
-1.84358e-05
1.72419e-05
-5.13536e-05
-1.04337e-05
4.76099e-05
-2.54944e-05
5.74091e-05
2.16067e-07
-3.24122e-05
-5.0445e-05
-8.2256e-05
2.84829e-05
2.44656e-05
-6.1695e-05
-0.000158637
-4.16982e-05
-6.57747e-08
-1.69137e-05
8.77376e-06
5.33129e-05
3.15602e-06
-1.07941e-05
2.47139e-05
-5.96547e-06
3.43231e-05
-2.73121e-05
-6.8465e-06
-1.89513e-06
-4.36441e-05
-0.000106617
-3.96518e-05
-2.96775e-05
-3.55598e-05
1.64218e-05
-5.9124e-05
-4.2719e-05
-1.0673e-06
-6.00063e-06
5.43522e-05
-3.54241e-05
-7.13798e-05
-7.13194e-05
4.01705e-05
1.15475e-05
-5.2352e-05
-1.1155e-05
9.64548e-06
3.18987e-05
-8.57749e-05
1.3962e-05
-6.13795e-05
-7.74174e-06
-3.48631e-05
-1.67101e-05
-4.55659e-05
-6.96029e-05
1.70253e-05
-4.88104e-05
-2.07968e-05
1.59818e-05
-1.0553e-05
-2.35443e-05
-1.24411e-05
-3.31043e-05
-4.60127e-05
-1.33584e-05
-4.22453e-05
-8.32288e-06
-5.94477e-05
-7.82583e-05
8.69739e-06
-2.01981e-06
-8.38246e-05
1.0549e-05
-3.22354e-05
-4.36762e-05
-0.000117681
-8.72626e-06
-3.99579e-05
-3.83075e-05
-7.16749e-05
9.3705e-06
3.00056e-05
-1.70406e-05
-2.39997e-05
-1.85578e-06
-5.11225e-05
-2.02563e-05
-8.13483e-05
-6.40948e-05
3.62433e-05
-8.0271e-05
-7.56304e-06
2.37459e-05
2.21167e-05
-5.27812e-05
-2.4247e-06
3.60702e-05
-9.46564e-05
1.02373e-05
-2.21477e-05
3.97034e-05
-4.13514e-05
-2.55486e-05
-5.70051e-06
3.04056e-05
-6.90698e-05
-4.7768e-05
3.67502e-05
-4.79713e-06
2.05869e-06
-4.86562e-05
-0.000107547
-6.60245e-05
-2.66002e-05
-2.24796e-05
-9.32952e-06
-1.88574e-05
-0.00010145
6.32275e-06
3.69595e-05
4.61063e-06
-1.08491e-05
-2.36545e-05
-8.50838e-05
-3.90913e-05
4.81097e-05
-6.97782e-06
-7.51886e-05
-6.46278e-05
-4.379e-05
3.07566e-05
-5.53513e-05
1.83121e-06
-5.12169e-05
9.71677e-05
1.17974e-05
-4.14073e-05
-5.22409e-05
-4.83999e-05
-4.73995e-05
3.21255e-05
-3.50833e-05
-7.29868e-05
1.69803e-06
-2.53872e-05
-1.98879e-05
4.50539e-06
-1.73195e-05
7.05672e-05
5.70894e-05
-6.70664e-05
-3.48979e-05
-2.73386e-05
-7.02047e-05
-2.06062e-05
2.42675e-05
8.58865e-05
-8.70349e-05
6.93451e-06
-4.3453e-05
-3.627e-05
6.90324e-05
3.75886e-05
-6.27583e-05
-4.99201e-06
2.55415e-05
-5.11218e-05
2.26249e-05
-1.34831e-05
-4.80211e-05
-1.9824e-05
3.05497e-06
3.73247e-05
3.42678e-05
-1.23484e-05
-2.31678e-05
-0.000132199
-1.6659e-07
-7.60646e-06
5.12585e-05
-7.35314e-06
-7.36325e-05
5.01657e-06
-3.30424e-05
-1.99105e-06
5.00252e-05
-7.79796e-06
-2.33897e-05
-8.48027e-06
1.05414e-06
-1.92291e-05
7.13237e-05
-5.15236e-05
7.82229e-06
3.1163e-05
6.53437e-05
-4.67908e-05
-2.90642e-05
-1.14904e-05
-2.49572e-05
-9.34283e-05
-2.04821e-05
3.51588e-05
4.88628e-05
3.64081e-05
-1.64525e-05
3.77696e-05
6.14577e-05
-4.75243e-05
4.48452e-05
4.40085e-05
9.82312e-06
-5.10863e-05
1.23067e-05
2.34442e-05
7.04302e-05
4.96684e-05
-3.57141e-05
2.25286e-05
5.27361e-06
-2.5116e-05
4.80087e-05
3.40398e-05
2.11624e-05
-2.89199e-05
-7.34259e-05
2.16749e-05
3.48729e-05
1.42131e-06
-4.63354e-05
1.81748e-06
-1.65711e-05
5.22445e-05
1.92712e-05
-4.251e-05
-9.05944e-05
6.88422e-06
2.94283e-05
9.43267e-06
3.90757e-05
-4.01766e-05
2.79774e-05
-3.30701e-05
9.02755e-05
1.87058e-05
2.19357e-05
-2.38945e-05
3.89217e-05
7.95064e-05
-1.43028e-06
-1.07869e-05
-4.31226e-05
-5.63427e-05
3.6556e-05
5.69131e-06
-2.97661e-05
3.1851e-05
-3.75104e-05
-1.97687e-05
6.36962e-05
5.06414e-05
-4.80588e-05
-4.18772e-05
-9.31276e-06
-2.63558e-05
-1.33661e-05
5.09451e-05
7.41069e-05
-1.38808e-05
-5.52129e-05
-6.02389e-05
2.25473e-05
4.01651e-05
-3.56473e-05
4.60854e-05
6.0403e-05
1.00422e-05
-2.7285e-05
-6.84022e-05
1.03845e-05
-3.90664e-05
-6.67314e-05
1.8933e-05
-3.86647e-05
-7.26082e-05
1.55342e-05
3.44658e-05
-9.18214e-06
-2.52388e-05
3.49991e-05
6.71942e-05
-7.81391e-06
-2.34849e-05
1.90879e-05
-3.4557e-05
-3.24671e-06
3.17621e-05
-4.33619e-05
-4.44566e-05
-1.29163e-05
6.19076e-05
-1.54722e-05
-1.9243e-05
-9.33884e-07
1.07804e-05
-2.67865e-05
6.43287e-05
6.27479e-07
3.16112e-05
-3.45437e-05
-2.02106e-05
3.29814e-05
-8.92964e-06
-5.33774e-05
-6.58385e-05
-1.97747e-05
2.38291e-06
3.65479e-05
8.36782e-06
-1.8779e-06
1.48283e-05
-2.75734e-05
4.24773e-05
2.79528e-05
9.69105e-05
6.65826e-05
1.94262e-05
1.45664e-05
-1.36638e-05
5.90171e-05
5.77692e-05
-3.53307e-05
8.65562e-05
-1.88483e-05
-2.1022e-05
-5.39368e-05
1.12333e-05
-1.22988e-05
7.0316e-05
-1.07866e-05
6.14929e-06
5.77936e-05
3.4752e-05
-3.56397e-05
-5.85627e-06
4.38268e-05
2.99952e-05
1.48881e-05
3.09432e-06
-6.29965e-05
1.44141e-05
-9.34468e-05
4.10879e-05
-3.34161e-05
-7.29718e-05
6.78643e-06
-4.31379e-05
3.26063e-05
-5.40692e-05
-3.51891e-05
-7.38085e-06
-3.46784e-05
7.78143e-06
5.28587e-05
1.66988e-05
-1.61538e-06
7.61895e-05
-2.89595e-06
5.27897e-05
3.30994e-05
2.69052e-05
3.20121e-05
-4.14018e-05
-7.91213e-05
6.70378e-06
-3.71055e-05
3.38885e-07
3.12881e-05
2.55894e-05
4.62427e-05
-7.34429e-06
3.8557e-05
-1.82485e-05
8.60395e-05
-3.51757e-05
-2.42112e-05
-2.44788e-05
3.96881e-05
3.9636e-05
-5.59597e-06
-1.59818e-05
5.26495e-05
-3.12828e-05
-9.51334e-06
1.32091e-05
3.03074e-05
4.0144e-05
-6.21305e-05
6.55744e-06
-4.02805e-05
7.6816e-05
-2.30572e-05
2.42738e-06
-2.36236e-05
-7.65733e-06
1.0553e-06
-7.5846e-05
1.89048e-05
4.24928e-05
2.73343e-06
-4.68809e-05
-0.000111356
2.3297e-05
1.92826e-05
1.66986e-06
4.11414e-05
-1.26257e-05
3.11458e-06
-2.15394e-05
-7.41896e-05
3.57798e-05
1.81666e-05
-4.43207e-05
1.38062e-05
2.4942e-05
-1.40066e-05
-5.45263e-05
-1.59671e-05
4.84833e-05
-4.49969e-06
-0.000139603
5.79738e-05
3.08064e-05
0.000100899
-3.72756e-05
3.82721e-05
1.96723e-05
-2.19462e-05
-3.16994e-05
-3.15026e-05
5.7979e-05
8.84749e-05
-9.06724e-06
-5.99885e-05
9.21835e-06
8.46433e-06
-1.82772e-08
-2.0785e-05
-3.90375e-05
0.000130275
-3.43216e-05
-4.70518e-05
5.37112e-05
-2.79641e-06
2.82261e-06
-3.79188e-05
-6.05411e-05
4.75419e-05
4.84362e-05
-1.75369e-05
3.74634e-05
-5.19098e-05
4.18174e-05
3.39497e-05
-6.99728e-05
2.73659e-05
3.88059e-05
1.67807e-05
-5.26779e-05
6.28694e-05
-2.19622e-05
-4.31018e-05
-7.40343e-06
-2.66796e-05
4.25465e-05
3.64974e-06
2.75731e-05
-4.73876e-05
-6.43707e-06
3.03098e-05
-2.263e-05
-8.19342e-05
-4.95827e-05
1.36236e-05
3.36366e-05
4.5352e-05
-3.78172e-05
6.72052e-05
-2.02054e-05
-6.23041e-05
4.74695e-05
4.62763e-05
1.24057e-05
3.82878e-05
2.15037e-05
5.87145e-05
-6.5e-05
-4.25664e-05
-1.34122e-05
4.39062e-05
4.787e-05
-2.23203e-05
-6.05176e-05
1.98325e-06
-2.43774e-06
-3.00119e-05
1.48918e-05
2.92043e-05
7.28877e-05
7.0664e-05
-3.58252e-05
-0.000140627
2.58458e-05
1.20362e-06
-2.88258e-05
-4.69699e-05
5.72422e-05
3.12586e-05
1.75562e-05
-0.000107817
-1.58474e-05
1.13322e-05
3.9952e-05
3.2814e-05
-4.301e-05
3.20359e-05
3.74884e-05
-3.91938e-05
2.83306e-05
3.71941e-05
-1.37141e-05
3.56362e-05
-5.4416e-05
8.30453e-05
3.03242e-05
-1.94274e-05
-2.67294e-05
6.84279e-05
4.1218e-05
-2.91597e-05
3.35344e-05
3.92136e-05
3.68367e-05
-3.48373e-05
-2.81512e-05
1.41674e-05
3.52949e-05
-7.15669e-05
-2.16163e-05
4.60054e-05
3.64992e-05
2.3186e-05
-3.1236e-05
-7.13486e-05
2.25479e-05
-3.52727e-05
7.69856e-05
-4.16432e-05
-1.37857e-05
7.45141e-05
-5.40669e-05
4.00387e-06
-1.77843e-05
-5.58048e-05
2.01226e-05
5.96e-06
5.05821e-05
6.31157e-05
-6.58256e-05
8.1419e-05
-4.32247e-05
-2.44332e-05
2.67207e-05
4.39433e-06
9.56794e-06
7.65524e-06
4.3906e-06
-4.22162e-05
2.17027e-05
1.01279e-05
-1.56353e-05
-7.88145e-05
-2.79718e-05
-7.33091e-06
2.62826e-05
6.2288e-06
2.38398e-05
-8.04104e-06
5.2616e-05
3.00958e-05
-3.0796e-05
-8.68593e-05
1.14747e-05
3.87332e-05
1.11611e-05
-2.85618e-05
-9.12522e-06
-2.48163e-06
2.21182e-05
-3.22994e-06
2.53444e-05
2.25466e-05
3.20963e-05
-2.0874e-05
-3.06254e-06
6.05523e-06
-3.41365e-06
3.49667e-05
-2.44871e-05
5.34735e-05
1.96632e-05
1.27887e-05
-1.15687e-05
2.92521e-05
2.8708e-06
3.3959e-05
-1.87168e-05
-2.88675e-06
-6.90413e-05
2.46683e-05
-5.03892e-06
-1.26841e-05
2.05978e-05
-2.634e-05
-2.66184e-06
-3.02473e-05
-7.38937e-05
-1.16546e-05
0.000124287
-9.67178e-05
2.30563e-05
4.08881e-05
1.12088e-05
1.89695e-05
2.29746e-05
-6.504e-05
-1.85567e-05
-3.58939e-05
9.8882e-06
-2.25086e-05
-0.00011462
5.06444e-05
-0.000120174
-5.21552e-05
0.000129995
-2.85542e-05
-3.29313e-05
1.39812e-05
-3.08803e-06
-4.58409e-06
-6.87172e-05
5.01284e-07
2.5406e-05
-3.06807e-05
-4.83694e-05
-2.09833e-05
3.77459e-05
3.99073e-05
1.09907e-05
-3.37756e-05
2.43066e-05
4.91922e-05
4.58612e-05
-7.13919e-05
-6.57422e-05
-4.48682e-05
5.14656e-05
2.45089e-06
-1.54646e-06
-6.96711e-05
3.42145e-07
-1.04234e-05
6.89412e-06
-2.29041e-05
-2.35531e-06
-3.06218e-05
3.27418e-05
-3.22657e-06
-1.03371e-05
-2.52564e-05
2.84623e-05
9.52233e-05
-3.02617e-05
3.2171e-05
4.4381e-05
-4.54085e-05
-0.000101102
-3.30771e-05
0.00011101
6.25445e-05
-5.28278e-05
-0.000107186
-1.18128e-05
6.8567e-05
3.46116e-05
-5.40466e-05
-5.21378e-05
4.75176e-05
-4.06376e-05
-0.000119436
6.12034e-05
-1.81563e-05
-3.11723e-05
0.000105493
-4.54737e-05
-9.29432e-05
-5.38455e-05
9.50508e-06
-5.5499e-05
1.67231e-05
4.28152e-06
-7.23699e-05
6.52403e-06
4.59246e-05
6.77758e-06
-2.06672e-06
5.32219e-05
2.83381e-05
-3.75981e-05
-4.85516e-05
0.000104193
-1.62807e-05
-5.72775e-06
-2.96999e-05
-2.67243e-06
-4.58122e-05
8.22765e-06
-1.31112e-05
-4.38881e-05
-3.36712e-05
-5.49542e-05
4.80602e-05
-3.43901e-05
5.50936e-05
-3.2677e-05
-2.49938e-05
-9.6095e-06
3.26964e-05
-4.34379e-05
8.21743e-05
3.99048e-06
1.01073e-05
-2.64165e-05
-1.68476e-06
5.18316e-05
-5.05236e-05
7.65338e-05
-2.69972e-05
-2.84477e-05
5.25336e-06
1.91296e-05
5.75271e-05
-1.55069e-05
1.41477e-05
1.54795e-05
9.67543e-05
-2.60591e-05
2.79734e-06
-6.86488e-05
-4.36394e-06
5.35522e-06
-6.23288e-07
-1.12269e-05
2.76117e-05
-7.06454e-05
2.38863e-05
3.64641e-05
-5.86116e-06
-1.47324e-05
5.8536e-05
-1.46381e-06
5.05475e-07
-8.36374e-06
-6.6882e-05
-7.45838e-06
-5.66776e-05
5.49138e-05
-1.55682e-05
-6.51166e-05
1.93968e-05
-2.50087e-05
1.49552e-05
4.44495e-05
-8.879e-06
-5.64917e-05
-7.0704e-05
-8.34174e-06
-2.96296e-05
-2.15287e-06
-1.83211e-05
-1.89315e-06
-0.000102778
8.74815e-06
3.24821e-05
3.07964e-05
-0.000103662
-3.61559e-05
2.02426e-05
8.39118e-05
4.753e-06
-1.31455e-05
3.1969e-05
7.1479e-07
-3.71371e-05
-7.51374e-05
-6.92118e-05
-2.21236e-06
-7.097e-05
1.36695e-06
-4.37518e-05
5.2101e-05
-3.20334e-05
-2.11229e-05
9.38179e-06
-1.06113e-06
4.85103e-06
-2.59297e-05
5.72976e-05
-2.03842e-05
4.02208e-05
1.71229e-05
-4.36113e-05
4.79107e-06
-4.099e-05
-3.49479e-07
2.30945e-05
-3.31623e-05
1.34481e-05
1.23584e-05
-2.6104e-05
-4.63813e-05
1.17685e-05
-4.40207e-05
0.000100773
4.16173e-05
5.9576e-05
5.72752e-06
3.6353e-06
3.72173e-05
-2.83867e-05
-2.65322e-05
-3.87032e-05
-3.32445e-05
-2.94519e-06
-4.8345e-06
-7.42385e-05
-9.21183e-05
-4.12922e-05
9.36043e-05
1.79685e-05
2.46139e-05
5.07899e-05
-3.90918e-05
-4.86933e-05
-6.07774e-05
2.91868e-05
-7.01526e-05
2.39768e-05
5.71002e-05
1.43808e-05
-8.54451e-05
6.48925e-05
5.64137e-06
1.15011e-05
-0.000120717
5.33742e-05
7.36075e-05
5.39143e-06
1.38738e-05
1.18419e-05
-9.6513e-06
3.66954e-05
-3.03432e-05
4.71817e-05
6.17245e-05
-4.68118e-06
-4.04324e-05
-2.98404e-05
4.83391e-06
-1.19186e-06
4.36947e-05
-1.84902e-06
-1.13781e-05
-1.70611e-05
7.82473e-05
-4.58362e-06
1.79139e-05
-3.62854e-05
-7.78636e-05
7.38348e-05
-9.19307e-05
-5.20749e-06
2.09286e-05
2.30595e-06
7.05891e-05
3.83824e-05
7.42101e-06
5.50146e-05
-1.01442e-05
4.60941e-05
-1.68374e-05
-5.88746e-05
-4.91899e-05
5.14213e-05
5.45884e-05
-1.98534e-05
5.81008e-05
3.02e-05
1.38807e-05
2.24963e-05
6.25569e-05
6.90145e-06
-8.80082e-05
-1.3425e-05
-5.00772e-06
4.87e-05
5.99249e-05
6.30913e-05
1.42655e-06
2.1443e-05
-2.66379e-05
-9.90438e-06
-6.22048e-05
-1.60281e-05
3.25942e-05
-3.8536e-05
-1.90414e-05
5.31534e-05
-2.28162e-05
1.54098e-05
-4.23555e-05
-5.64614e-07
-5.11482e-05
-1.0791e-05
-0.000114607
2.06348e-05
1.91701e-05
7.28538e-05
2.73278e-05
-4.94909e-05
5.05779e-05
5.27874e-05
6.41991e-05
-7.99028e-06
4.43972e-05
-4.86518e-05
-2.58868e-05
-3.12892e-05
9.76644e-05
-4.4603e-05
-4.87095e-05
2.70448e-05
-5.04587e-05
1.36553e-05
-9.01835e-05
-0.000131355
6.04797e-05
5.67496e-05
-1.70099e-05
2.47727e-05
-9.1088e-06
5.167e-05
-8.06582e-05
3.82909e-05
3.78345e-05
1.59072e-05
-7.97655e-06
-6.65535e-06
3.57418e-05
3.13772e-05
-9.32617e-05
-4.72959e-05
-9.3808e-05
-4.97689e-05
6.84741e-05
-3.54393e-05
9.14535e-06
-3.66224e-05
3.87209e-05
1.69341e-05
4.47616e-05
-5.40487e-05
2.94936e-05
6.61314e-05
1.22411e-05
-6.64294e-05
1.1333e-06
1.48169e-05
-1.36935e-05
6.08949e-05
-9.0932e-07
7.89305e-05
9.09658e-06
5.26161e-05
-9.66366e-05
3.41134e-05
6.60517e-06
-1.27824e-05
-4.43459e-05
-2.06708e-05
3.15055e-06
-9.3109e-07
-6.3061e-05
-0.000100799
-4.15872e-05
-9.15081e-05
-4.81859e-05
5.62919e-05
-1.52456e-05
-5.22906e-05
-2.41199e-05
-1.08293e-05
-4.57689e-05
-4.23094e-05
1.19053e-05
2.83613e-05
-1.41363e-05
-5.28244e-05
-6.13478e-05
1.77325e-05
1.07328e-05
-2.08273e-05
5.96307e-05
1.79058e-06
2.51201e-05
-2.36356e-05
5.88672e-05
3.18959e-05
4.76106e-05
-7.31897e-05
7.22462e-05
-0.000100921
-6.24009e-06
6.49318e-05
8.48947e-06
3.23069e-05
-3.30666e-06
-4.32205e-05
2.3779e-06
1.99968e-05
-1.27291e-05
9.59332e-06
3.61399e-05
2.75427e-05
6.92138e-05
-2.72389e-06
-6.3224e-05
-6.14522e-06
-7.611e-06
-1.02115e-05
4.45028e-05
5.20132e-06
2.67308e-05
-6.62974e-06
-4.79841e-06
-2.94803e-05
1.43548e-05
5.68992e-06
6.79193e-05
9.01171e-06
3.43905e-05
1.84247e-05
1.29044e-05
-4.46521e-05
3.45935e-05
3.36545e-05
1.93866e-06
-1.88095e-05
4.46874e-05
-5.23892e-05
6.75365e-05
7.74647e-05
6.37164e-06
8.13846e-05
-3.18107e-05
2.20673e-05
-1.73562e-05
-2.87804e-05
-6.86576e-05
1.19238e-05
2.47911e-05
1.23706e-05
-3.48674e-05
2.1678e-05
-2.20749e-05
-3.52506e-06
1.23347e-05
1.70979e-06
2.97127e-05
-6.88562e-05
-1.33734e-05
9.18953e-05
-3.43514e-05
1.47279e-05
-1.23639e-05
4.9457e-05
2.42066e-05
-4.44688e-05
5.05935e-05
0.000106778
9.66932e-05
6.52508e-05
8.89879e-07
-7.20727e-06
-1.14564e-05
6.66907e-05
-5.44824e-06
4.01792e-05
-2.33975e-05
4.17561e-05
-3.41276e-05
-2.1398e-05
6.28014e-06
-2.62638e-05
3.58212e-05
-8.9314e-05
4.69465e-05
-3.57553e-05
3.30249e-05
2.34643e-05
-9.97122e-05
2.21338e-05
3.57016e-05
-1.87462e-05
2.13264e-05
-6.78233e-05
2.71618e-05
-5.16979e-05
5.68145e-05
4.88441e-05
-1.74806e-05
3.80409e-05
4.54171e-05
1.17876e-05
-8.37981e-06
2.07492e-05
-2.05643e-05
5.28255e-05
-7.57066e-05
-4.26274e-05
-7.67293e-06
2.0499e-05
-1.5436e-05
-3.12331e-05
1.17392e-05
6.21654e-05
4.88076e-05
4.33635e-06
-0.000127571
-5.02242e-05
-6.86672e-05
-6.60992e-05
3.09136e-05
7.61504e-05
-7.01352e-05
-7.02962e-06
9.28482e-06
4.82402e-05
3.83996e-06
8.47341e-06
-6.75765e-05
-1.85831e-05
1.21739e-05
-8.66805e-06
-3.19525e-05
-1.42832e-05
3.18373e-06
7.33102e-06
1.82405e-05
2.56515e-05
-6.78841e-05
-4.71459e-06
3.49293e-05
-5.05329e-05
1.07934e-05
-1.50147e-05
-1.63044e-05
-2.9539e-05
9.53892e-05
2.63904e-05
-1.76688e-05
-2.15014e-05
-1.27996e-05
8.03277e-06
-1.35812e-05
2.63907e-05
-7.18539e-06
-1.90847e-05
2.17275e-05
5.39327e-05
-9.03429e-05
5.7904e-05
-1.44776e-05
-1.46053e-05
-3.83232e-05
-4.54381e-05
2.61617e-05
5.74817e-05
2.07165e-05
1.80583e-05
2.61945e-05
-7.22194e-06
-2.65967e-05
2.38704e-05
-3.81795e-05
-3.29996e-05
2.86615e-05
4.19561e-06
5.34141e-05
-1.29023e-05
-4.54602e-06
9.10499e-05
1.63318e-05
1.6914e-05
-4.63272e-05
3.55744e-05
-3.91719e-05
2.29457e-05
1.72227e-05
3.0864e-06
6.80583e-05
6.72806e-05
-1.70231e-05
-7.54709e-06
4.55865e-05
-1.23874e-05
-6.61216e-06
0.000122597
3.26276e-05
1.82129e-05
2.49491e-05
-5.22537e-05
-2.22386e-05
-5.70165e-05
1.30432e-06
7.69063e-06
2.41779e-05
1.07719e-05
-5.20681e-05
1.76706e-05
6.4493e-05
-6.11889e-05
5.44066e-05
-4.49319e-05
-7.05202e-05
6.23043e-06
3.27919e-05
4.70877e-05
1.32772e-06
1.32957e-05
-7.78602e-05
-2.81835e-05
-6.89295e-06
0.000112601
3.68473e-05
-3.34259e-05
4.85624e-05
3.18341e-05
1.14893e-05
6.94901e-05
0.000133271
-7.38596e-05
-4.20362e-05
-1.68969e-05
2.04112e-05
8.13324e-06
-1.95545e-05
3.47552e-05
5.05915e-05
-6.30391e-05
-4.22692e-05
1.79624e-05
5.70344e-05
-6.66594e-07
2.8398e-05
-3.478e-05
-8.23168e-05
-3.1693e-05
-5.51022e-05
-1.69487e-05
6.43999e-05
-5.57773e-05
5.25214e-05
-0.000112341
-7.10648e-05
-1.52235e-05
-1.60274e-05
-3.59294e-05
5.28325e-05
4.40276e-05
-4.75487e-06
-6.05782e-05
-2.03254e-05
1.72132e-05
2.40917e-05
-2.14999e-05
-3.80275e-05
1.84206e-05
-5.22968e-05
-1.48041e-05
-9.04263e-05
-1.86135e-05
-1.40984e-05
0.000121307
-2.54702e-05
5.25201e-05
3.79473e-05
3.11936e-05
-3.85309e-05
-5.10283e-06
-4.49661e-05
2.6295e-05
1.12432e-05
-1.86057e-05
1.74427e-05
-3.76215e-05
8.71089e-06
-3.17956e-05
7.14652e-05
-7.47014e-05
0.000101809
5.19644e-05
3.18049e-05
1.94155e-05
4.63658e-05
-3.00445e-06
1.62402e-05
7.99992e-05
3.67616e-06
-1.37993e-05
-5.21084e-05
-5.62186e-05
2.68223e-05
-3.7802e-05
-4.78229e-05
2.88637e-05
-2.68988e-05
-1.16543e-05
-5.02802e-05
3.10761e-05
-2.00593e-05
3.81095e-05
-8.71745e-05
-4.69047e-05
1.67192e-05
4.92433e-05
9.12731e-06
1.4262e-06
-6.6942e-05
-7.27305e-05
-1.43617e-05
-9.74489e-06
-1.56976e-05
2.67378e-05
-9.21221e-05
-5.88647e-05
-1.25879e-05
5.10603e-05
-8.97493e-05
7.86016e-05
1.30894e-05
1.51685e-05
-0.000114672
-4.19711e-05
1.06478e-05
8.84151e-05
-6.75349e-06
-6.93102e-06
1.0808e-05
-9.15193e-05
-1.49587e-05
1.07788e-05
5.1809e-05
-3.28287e-05
4.25936e-05
9.43104e-06
7.85571e-07
4.03611e-05
-3.8346e-06
2.66726e-05
-2.21869e-05
6.11064e-07
2.16439e-06
1.83082e-05
-2.01631e-05
-7.52346e-05
-8.20156e-05
-4.08832e-05
3.06887e-05
3.11449e-05
-1.76033e-05
-1.14894e-05
3.875e-05
9.27458e-06
1.17534e-05
-4.44874e-05
-5.27482e-05
-4.26522e-05
9.6072e-05
-3.91064e-05
-6.17572e-05
-4.51254e-05
4.71994e-06
-4.15782e-05
-1.74821e-06
2.57663e-05
4.81143e-05
-3.50769e-05
2.89143e-05
3.42642e-05
2.19492e-05
-2.03146e-05
-2.84291e-05
2.95847e-05
6.23253e-05
1.81497e-05
-1.77093e-05
-4.22897e-05
-3.51807e-06
6.32221e-05
3.54717e-06
7.63242e-06
-5.2941e-06
1.01696e-05
2.7498e-05
2.91364e-05
-2.60756e-05
-5.97402e-05
8.67877e-05
3.29311e-05
-1.45726e-05
-1.42367e-05
5.72901e-05
3.84287e-06
9.81891e-05
0.000121367
-2.85938e-05
2.49973e-05
7.87224e-06
-1.86715e-05
-1.70153e-05
-7.32373e-05
0.000112081
-1.25974e-05
-6.01779e-05
7.86164e-06
3.08841e-05
9.78331e-06
7.84104e-06
1.71359e-05
4.90109e-08
-2.67224e-05
-2.56808e-05
-4.1337e-05
-4.55832e-05
-1.76246e-05
-7.76607e-06
-4.82695e-05
7.1398e-05
1.64241e-05
3.01738e-05
-3.19594e-05
1.3984e-05
-1.39402e-05
-1.55894e-05
4.4764e-06
-1.6586e-05
8.27658e-05
5.56021e-05
5.67315e-06
3.54119e-05
2.8623e-06
-1.63056e-05
2.07496e-05
9.63244e-06
-1.4501e-05
-4.8888e-05
-4.07477e-05
-9.69216e-06
4.12579e-05
-2.15805e-05
-3.41524e-05
5.64968e-05
-1.37314e-05
-5.04194e-05
3.84739e-05
-2.33623e-05
-1.19605e-06
-5.9447e-05
5.95197e-06
6.40076e-05
-7.39724e-05
-2.23716e-05
-4.28886e-06
-7.43159e-05
-1.58098e-05
5.60061e-05
-2.41018e-05
5.20144e-05
4.58723e-05
-3.16428e-05
0.000122278
2.89964e-05
1.20706e-05
-2.74092e-05
-3.44679e-05
-3.20198e-05
5.98456e-05
4.27904e-05
-2.5427e-05
-1.62859e-05
4.25263e-05
4.55985e-05
-7.08052e-05
-4.53839e-05
-1.75916e-05
6.00136e-05
3.70813e-05
4.36974e-05
-7.64499e-06
2.17551e-05
1.48434e-05
1.47814e-05
3.49523e-05
1.44986e-05
-7.17351e-05
5.90791e-05
3.9353e-05
-1.62126e-05
4.74529e-05
-1.84563e-05
-3.84232e-05
8.46091e-05
5.78988e-05
5.29932e-05
-2.82939e-05
-1.40262e-05
-3.38152e-06
6.56866e-05
1.70164e-05
1.81664e-05
-1.45182e-05
-3.22156e-05
8.30158e-06
5.70646e-05
3.72087e-05
6.8962e-05
3.92855e-05
3.0786e-05
-1.59349e-05
4.17498e-05
8.47317e-06
-3.21829e-05
-1.07548e-05
-1.45924e-05
5.3932e-05
1.21888e-05
2.11245e-05
-2.64749e-05
1.12987e-05
-2.39081e-05
-1.44509e-05
1.0998e-05
-7.73545e-06
4.69002e-06
1.68589e-05
6.67057e-05
1.57992e-05
-0.00010758
-8.24989e-05
6.52298e-06
-5.85073e-05
5.17328e-05
1.84857e-05
1.66774e-05
-7.07678e-05
5.68514e-06
-1.86226e-05
-4.3344e-05
5.83277e-05
-4.15363e-05
-7.76735e-05
-1.33212e-05
-3.74748e-05
-1.09954e-06
5.06307e-05
3.43446e-05
5.21396e-05
2.9532e-05
4.71441e-05
-2.02372e-05
0.000134812
5.51658e-05
-3.82706e-05
-1.12216e-05
0.000111733
1.12818e-06
-1.38337e-05
-2.07328e-05
-1.05337e-05
5.75092e-06
2.51083e-05
-6.47182e-05
1.22224e-06
0.00011825
2.02323e-05
-6.96788e-05
-8.34579e-05
9.06893e-05
4.29545e-05
-6.09942e-05
-2.33599e-06
4.5239e-06
-2.48615e-05
-7.49837e-05
-6.30086e-06
3.3979e-05
6.28866e-05
-2.65939e-06
-2.97547e-05
-6.67728e-05
-1.08315e-05
7.42381e-06
3.03186e-05
-1.26916e-05
1.26476e-05
-3.24743e-05
-1.54035e-05
4.65958e-05
-6.05942e-07
-7.33237e-05
-3.61165e-05
3.19348e-05
5.0712e-05
5.52047e-05
-3.86609e-05
-2.71016e-05
-1.73168e-06
4.00436e-05
-1.28829e-05
1.1524e-05
2.75386e-05
1.51003e-05
2.02366e-05
3.27817e-05
-0.000103583
-2.37202e-05
5.62993e-05
-3.56049e-05
-8.56412e-05
0.000101618
-2.907e-05
2.1579e-05
-5.19508e-05
6.29341e-06
-5.95589e-05
3.80189e-06
-4.01158e-05
2.21786e-05
-9.73768e-06
6.35828e-05
-2.76128e-05
-2.54394e-05
9.06728e-05
-5.5589e-05
-3.51446e-05
1.4781e-05
-2.30939e-05
3.46852e-05
-4.10145e-05
-1.09316e-05
2.98411e-05
3.45646e-05
-4.78458e-05
-5.78742e-05
-3.72989e-05
3.58621e-05
-1.02359e-05
-1.76755e-05
3.83471e-05
4.55033e-06
-3.07258e-05
-6.31746e-05
6.19108e-06
-5.68881e-05
0.000120349
-0.000117729
-6.80874e-05
1.0187e-05
-1.02158e-05
2.82163e-05
-1.96027e-05
-6.25569e-06
3.50755e-05
9.93186e-06
-5.96486e-05
5.40575e-05
-2.97577e-05
-7.2585e-07
-9.39064e-06
-2.64799e-05
5.89007e-05
9.35839e-05
7.95015e-05
-1.68923e-05
-6.82934e-05
-7.77043e-05
4.75625e-05
-1.31782e-06
1.17442e-05
5.16309e-05
-6.31507e-05
2.21429e-05
3.45722e-05
-3.89619e-05
4.9273e-05
9.85339e-06
-2.73695e-05
-7.1801e-05
-2.20758e-06
9.41264e-06
5.68598e-05
-2.01395e-05
-8.62195e-06
7.08981e-06
9.57167e-07
-2.91979e-05
-3.67719e-05
9.87202e-07
-7.08329e-06
-7.77076e-05
4.07124e-05
2.2804e-05
-2.33533e-05
-2.82729e-05
6.35558e-06
-3.10611e-05
-2.37779e-05
5.87653e-05
3.77756e-05
-8.88552e-05
1.88741e-05
2.82149e-05
2.42067e-05
-1.97266e-05
3.13716e-05
2.67725e-05
-2.78914e-05
-1.14414e-05
4.39796e-05
-1.84719e-05
6.28969e-06
-9.41614e-06
3.67074e-05
-1.65385e-05
-2.21912e-05
-3.26341e-05
2.11538e-05
-9.05286e-05
-2.25271e-05
7.17782e-06
-1.67806e-05
-5.12955e-05
-4.15264e-05
3.0258e-05
1.87579e-05
1.34516e-05
6.79977e-05
0.000103677
-2.68696e-05
-5.62216e-05
-7.36839e-06
-8.72905e-06
-8.22067e-06
-0.000119191
3.07655e-05
9.97081e-05
7.93554e-05
2.35239e-05
2.89513e-06
3.23565e-05
6.61891e-06
-1.274e-05
-1.1237e-05
3.50166e-06
6.08942e-05
-6.73463e-06
5.99329e-05
-9.10787e-06
-4.93438e-05
-1.25007e-05
-1.79212e-05
3.41779e-05
-3.37979e-05
7.3954e-06
5.94538e-05
0.000102923
1.5897e-05
2.07464e-06
6.60843e-05
-5.49526e-05
-6.422e-05
4.83578e-06
5.86051e-05
-3.53624e-05
-0.000113618
-3.21867e-05
8.25222e-06
3.03732e-05
4.09456e-06
1.25883e-05
-2.57908e-05
4.02995e-06
-1.99422e-05
-0.000115458
-8.30344e-06
2.34316e-05
1.67685e-05
-9.89926e-06
-1.77941e-05
3.4106e-05
5.38379e-05
-8.89879e-07
-3.2686e-05
-1.44831e-05
1.08395e-05
2.86293e-05
1.41959e-05
-1.13217e-05
4.36335e-05
-9.69996e-06
4.36599e-05
-6.26023e-06
-6.49596e-05
8.33399e-05
7.37375e-06
-2.33593e-05
-5.29967e-05
8.21962e-06
-7.67076e-05
-5.47339e-05
1.6999e-05
-2.35288e-05
6.93039e-05
-5.89242e-05
-1.58966e-05
-3.79677e-06
-4.36552e-05
1.74996e-06
6.90948e-06
-1.56336e-05
-1.26809e-05
-6.31309e-06
-2.87476e-05
6.35843e-05
-1.27364e-05
2.98873e-05
-1.94586e-05
0.00010666
-6.87318e-05
2.64263e-06
7.97828e-05
-7.28978e-05
-2.11624e-05
-1.82865e-06
-5.65476e-06
-3.07186e-05
-1.66474e-07
6.13111e-05
-4.53611e-05
-3.93752e-06
2.74233e-05
5.10009e-05
6.30156e-06
2.15233e-05
-5.93151e-05
-4.52382e-05
-4.56912e-05
-4.39748e-05
-2.38911e-05
-5.03431e-05
-2.24276e-05
-6.28908e-05
1.1195e-05
0.000117078
1.08843e-05
1.6035e-06
7.116e-06
-1.24836e-05
-9.79608e-05
1.17284e-05
-2.43349e-05
-6.52869e-05
-4.57335e-05
9.77494e-05
-2.8451e-05
2.46847e-05
2.89711e-05
-3.39521e-05
9.19262e-05
-5.06374e-05
-3.13991e-05
4.17465e-07
2.2626e-05
5.23936e-05
-4.63504e-05
3.019e-06
-7.25872e-05
3.62424e-05
4.53796e-05
5.10277e-05
4.96123e-05
1.14619e-05
6.31437e-06
1.38576e-05
1.41433e-06
1.35631e-05
-5.94304e-05
-5.26094e-05
-3.14446e-05
3.68988e-05
-1.13039e-06
4.39421e-06
1.65974e-05
1.01099e-05
-4.56735e-05
-5.67071e-05
-2.16055e-05
3.75393e-06
3.02105e-05
2.47171e-05
-3.70552e-05
-4.68161e-05
-8.03272e-05
-3.89204e-05
8.4645e-05
4.35195e-05
1.98972e-05
-8.17585e-06
-6.95791e-06
-5.38757e-05
3.5844e-05
-6.18505e-05
7.90432e-05
-1.59477e-05
-3.99176e-05
-6.26174e-05
3.51219e-05
5.15335e-05
1.97045e-06
-3.47092e-06
-9.94978e-06
5.45724e-05
-4.3594e-05
-3.20035e-05
3.58504e-05
-2.337e-05
-7.19412e-06
3.16275e-05
-2.36785e-05
4.79079e-05
6.116e-05
-1.50186e-05
5.83356e-05
-1.60109e-05
-5.55498e-05
-4.11185e-05
3.92955e-05
8.73668e-05
-9.01858e-06
2.39064e-05
5.31231e-05
-2.11853e-06
3.75919e-05
-6.11144e-05
-5.3782e-05
4.7565e-05
-2.97435e-05
-7.41595e-05
-1.30141e-05
3.82843e-06
-4.95905e-05
-1.00635e-05
1.48064e-05
3.3679e-06
-4.77555e-05
-3.26609e-05
4.77978e-06
4.40957e-05
4.04307e-05
-4.65775e-05
-4.65792e-05
9.95409e-06
6.58098e-05
1.77752e-05
-1.76018e-05
-0.000102062
4.74704e-05
-2.0167e-05
-7.7755e-06
-8.79937e-06
4.50334e-05
-5.59189e-06
-5.70053e-05
-1.93104e-05
-3.39665e-05
4.75906e-05
2.16509e-05
-2.22097e-05
-2.47785e-05
-2.5415e-05
-5.89073e-06
-1.15662e-05
-4.13182e-05
-4.02362e-05
1.2063e-06
-4.48257e-05
2.04253e-05
3.38082e-06
-2.82915e-05
3.01644e-05
9.34838e-06
-6.71298e-05
-4.05739e-05
7.09333e-05
-3.39556e-05
-2.67515e-05
2.17737e-05
1.56357e-05
1.44398e-05
-8.90228e-06
-1.19938e-05
1.44324e-05
8.70284e-05
-9.69972e-07
1.24229e-05
-5.59274e-05
-1.92776e-05
3.90811e-05
3.06999e-06
-4.05498e-05
7.56641e-06
6.72847e-05
3.9499e-05
-7.47539e-05
-3.48645e-05
2.46887e-05
-5.16149e-05
3.76708e-06
-4.08547e-05
-1.83185e-05
8.32829e-05
-3.53501e-05
-3.5636e-05
-9.10182e-06
-2.37031e-05
-7.61583e-05
-4.31733e-05
-3.44524e-05
3.03321e-05
-5.93202e-05
-4.43418e-05
-1.38483e-05
2.80144e-05
4.43447e-05
7.11181e-06
-4.18629e-07
-3.37958e-05
5.63179e-05
4.62115e-05
-7.51619e-05
0.000106831
-4.85465e-05
-1.38166e-05
-8.41101e-07
-1.47606e-05
-6.57004e-05
-1.55215e-05