# vtk DataFile Version 1.0
Net Charge Density
ASCII
DATASET STRUCTURED_POINTS
DIMENSIONS 256 128 1
ORIGIN 0 0 0
SPACING 0.15625 0.15625 1
POINT_DATA 32768
SCALARS rhonet float
LOOKUP_TABLE default
-3.8963e-06
-9.51281e-05
0.000144792
9.63224e-05
3.56846e-05
0.000120451
-0.000118445
9.1858e-05
0.000154217
2.28994e-05
-3.75604e-05
0.000108726
0.00010382
7.94453e-05
0.000109346
4.99605e-05
8.77434e-05
0.000140235
4.05881e-05
-6.79101e-05
-6.40703e-06
0.000141859
0.000144767
4.77826e-05
3.7268e-05
2.07428e-05
7.74215e-05
9.0589e-05
-1.35215e-05
-7.27426e-05
5.23026e-05
3.97239e-05
4.36689e-05
6.90081e-05
1.24413e-05
0.000171713
1.68076e-05
7.2873e-05
7.73579e-05
-5.53112e-06
2.29317e-05
6.83218e-06
0.000136404
9.39815e-05
2.09389e-05
1.8683e-05
-3.16132e-05
6.95545e-05
0.000116214
7.88724e-05
-1.20073e-05
2.49783e-05
8.34422e-05
0.000148995
3.55954e-05
1.75044e-05
0.000151011
-5.17471e-05
5.67781e-06
7.16957e-05
5.02793e-05
6.0602e-05
7.16792e-06
8.01802e-05
8.22487e-05
-8.03835e-05
4.41819e-05
0.000136175
4.09957e-05
4.82834e-05
7.92335e-05
3.67117e-05
-2.69158e-05
4.96674e-05
-1.15368e-07
5.11557e-05
4.20858e-05
-3.83081e-05
9.21621e-05
0.000106615
8.71846e-05
2.54086e-05
7.49615e-05
0.000101106
4.54683e-05
-4.48024e-06
-1.66915e-05
6.70482e-05
0.000119669
-2.34875e-05
9.00027e-05
-1.4795e-05
-3.90527e-05
-6.21425e-06
-8.99174e-05
5.22716e-05
0.000157961
2.4098e-05
9.16881e-05
-2.49444e-05
0.000157723
9.09189e-05
-3.16952e-06
9.47259e-05
3.90385e-05
0.00013097
-2.57976e-07
-6.85494e-05
2.66242e-06
7.39994e-05
0.00013342
5.79281e-05
2.02985e-05
3.31155e-05
8.0421e-05
4.3659e-05
1.22653e-05
7.49691e-05
5.09603e-05
4.32276e-05
-3.98802e-05
-3.4563e-05
4.04443e-05
2.44895e-05
0.00011572
6.60875e-05
1.82551e-05
8.13099e-05
1.99643e-05
-1.88102e-05
0.000119796
9.2616e-05
-2.24391e-06
3.77484e-05
2.0324e-05
6.79668e-06
4.46091e-05
-3.19164e-05
4.68966e-05
-1.1503e-05
-4.98405e-05
2.32959e-05
2.09624e-05
0.000160761
9.88225e-05
2.06416e-06
0.000137836
1.1524e-05
-3.11241e-05
0.000132419
1.78267e-05
2.91321e-05
0.000108428
-8.34535e-06
3.45048e-05
4.32304e-05
5.74626e-06
3.4271e-05
-5.27583e-06
1.75424e-05
7.67775e-05
2.50083e-05
0.000112709
-2.20693e-05
3.25858e-05
2.55229e-05
5.84623e-05
-6.12719e-05
0.000105448
0.000137295
2.50292e-05
4.32234e-05
7.45824e-05
0.000111579
-2.02681e-05
-8.13336e-06
8.7293e-05
-8.23224e-05
1.15579e-05
3.31808e-05
8.87694e-05
-7.06001e-05
-3.18107e-05
5.65359e-06
1.04989e-05
7.98535e-05
4.142e-05
7.20924e-05
0.000102554
7.46854e-05
2.48844e-05
0.000198125
8.16125e-05
-6.56992e-05
6.24201e-05
0.000201229
4.7522e-05
8.32754e-05
7.86668e-05
-1.63084e-05
5.95992e-05
0.00014917
4.39011e-05
3.8336e-05
-1.00756e-05
6.97708e-05
-5.98879e-05
5.34233e-05
6.86804e-05
8.57908e-05
6.81025e-05
0.000137439
0.000106097
-2.40526e-05
0.000111081
-0.00013128
0.000102691
9.90947e-05
-5.28728e-05
-3.79209e-05
8.69742e-05
0.000114877
0.000176992
3.40524e-05
7.95294e-05
5.67444e-05
-3.69132e-05
-1.51399e-05
8.69035e-05
6.86066e-05
6.22799e-06
4.16541e-05
2.36377e-05
2.60695e-05
0.000121307
-3.55704e-05
-2.0577e-05
2.75008e-05
5.94513e-05
8.97911e-06
1.84993e-05
8.66941e-05
-5.82662e-05
-3.0722e-07
2.65903e-05
-1.44094e-05
-2.21961e-05
-3.95464e-05
0.000128655
-4.29596e-06
2.10485e-05
-3.85134e-05
0.000102293
2.14381e-05
2.40526e-05
4.18616e-05
-0.0001049
2.4705e-05
-6.30285e-05
-2.51195e-05
-2.3887e-05
5.12267e-05
-2.60443e-05
-7.57643e-05
4.98935e-05
-6.60464e-05
-4.29007e-05
2.33413e-05
-5.99085e-05
-8.02726e-05
3.00258e-06
-4.24262e-05
4.66232e-06
1.08918e-05
-2.15753e-05
-4.06103e-06
-5.82074e-05
-6.74936e-05
-0.000106138
-1.79199e-05
-2.00459e-05
-5.72714e-05
-2.52766e-05
7.73021e-06
-3.07409e-05
-8.53869e-05
-3.53891e-05
-8.36083e-06
2.7442e-05
-7.95684e-05
-6.67479e-05
2.31332e-05
-0.000103178
-3.37884e-05
1.9834e-05
-8.2033e-05
-5.15865e-05
-4.3841e-05
8.67283e-06
3.55996e-05
-2.47124e-05
4.87408e-06
-0.000112385
-3.15168e-05
3.88791e-05
-3.39415e-05
-6.56128e-05
-4.11931e-05
-3.17378e-05
2.98237e-05
-2.85314e-05
-3.54564e-05
-2.3486e-05
-0.00011611
1.48102e-05
-3.37928e-05
4.56303e-05
-5.12686e-05
-5.72853e-05
-3.73459e-05
-3.01471e-05
-6.05671e-05
-1.00285e-05
-7.96345e-05
-0.000109192
1.21041e-05
-4.39814e-05
9.01776e-06
-1.84353e-05
1.72422e-05
-5.13535e-05
-1.04338e-05
4.76096e-05
-2.54938e-05
5.74085e-05
2.163e-07
-3.24126e-05
-5.04445e-05
-8.22559e-05
2.84826e-05
2.4466e-05
-6.16946e-05
-0.000158637
-4.1698e-05
-6.55418e-08
-1.69135e-05
8.77283e-06
5.33126e-05
3.15625e-06
-1.07938e-05
2.47143e-05
-5.96489e-06
3.43227e-05
-2.73117e-05
-6.84743e-06
-1.89478e-06
-4.36436e-05
-0.000106617
-3.96515e-05
-2.96774e-05
-3.55602e-05
1.64225e-05
-5.91243e-05
-4.27188e-05
-1.0673e-06
-5.99981e-06
5.43519e-05
-3.54238e-05
-7.13798e-05
-7.13195e-05
4.01702e-05
1.15476e-05
-5.23516e-05
-1.11545e-05
9.64571e-06
3.18994e-05
-8.57752e-05
1.39619e-05
-6.13795e-05
-7.7415e-06
-3.48635e-05
-1.67097e-05
-4.55655e-05
-6.96026e-05
1.70246e-05
-4.88097e-05
-2.07964e-05
1.59814e-05
-1.0553e-05
-2.35448e-05
-1.24408e-05
-3.31042e-05
-4.60126e-05
-1.33582e-05
-4.22453e-05
-8.32253e-06
-5.94474e-05
-7.82581e-05
8.69716e-06
-2.01957e-06
-8.38249e-05
1.0549e-05
-3.22356e-05
-4.36766e-05
-0.00011768
-8.72544e-06
-3.99573e-05
-3.83076e-05
-7.16745e-05
9.3705e-06
3.00051e-05
-1.70405e-05
-2.39993e-05
-1.85613e-06
-5.1122e-05
-2.0256e-05
-8.13482e-05
-6.40948e-05
3.62431e-05
-8.02709e-05
-7.56409e-06
2.37458e-05
2.2117e-05
-5.27812e-05
-2.42563e-06
3.60706e-05
-9.46563e-05
1.02373e-05
-2.21475e-05
3.9703e-05
-4.13512e-05
-2.55482e-05
-5.70063e-06
3.04057e-05
-6.90696e-05
-4.77678e-05
3.67509e-05
-4.79701e-06
2.05915e-06
-4.8656e-05
-0.000107547
-6.60241e-05
-2.66007e-05
-2.24797e-05
-9.32999e-06
-1.88574e-05
-0.00010145
6.32275e-06
3.69591e-05
4.6104e-06
-1.0849e-05
-2.36544e-05
-8.5084e-05
-3.90901e-05
4.811e-05
-6.97782e-06
-7.51886e-05
-6.46278e-05
-4.379e-05
3.07565e-05
-5.53513e-05
1.83098e-06
-5.12169e-05
9.71673e-05
1.17979e-05
-4.14067e-05
-5.22413e-05
-4.83996e-05
-4.74001e-05
3.21253e-05
-3.50826e-05
-7.29867e-05
1.69827e-06
-2.5388e-05
-1.98886e-05
4.50562e-06
-1.73202e-05
7.05671e-05
5.70889e-05
-6.70662e-05
-3.48978e-05
-2.73385e-05
-7.02043e-05
-2.06062e-05
2.42674e-05
8.58862e-05
-8.70344e-05
6.93405e-06
-4.34534e-05
-3.62695e-05
6.90327e-05
3.75885e-05
-6.27587e-05
-4.99166e-06
2.5542e-05
-5.1121e-05
2.26249e-05
-1.34829e-05
-4.80205e-05
-1.98241e-05
3.0552e-06
3.73243e-05
3.42682e-05
-1.23482e-05
-2.31678e-05
-0.000132198
-1.6694e-07
-7.60681e-06
5.12578e-05
-7.35291e-06
-7.36321e-05
5.01657e-06
-3.30424e-05
-1.99093e-06
5.00251e-05
-7.79773e-06
-2.33897e-05
-8.48016e-06
1.05414e-06
-1.92301e-05
7.13232e-05
-5.15233e-05
7.82241e-06
3.11635e-05
6.53443e-05
-4.67907e-05
-2.90639e-05
-1.14904e-05
-2.49564e-05
-9.34284e-05
-2.04818e-05
3.51592e-05
4.88632e-05
3.64081e-05
-1.64527e-05
3.77698e-05
6.14579e-05
-4.75247e-05
4.48449e-05
4.40085e-05
9.82266e-06
-5.10868e-05
1.23068e-05
2.34441e-05
7.04303e-05
4.96684e-05
-3.57146e-05
2.25288e-05
5.2742e-06
-2.51166e-05
4.80089e-05
3.40396e-05
2.11627e-05
-2.89199e-05
-7.34264e-05
2.16749e-05
3.4873e-05
1.4212e-06
-4.6335e-05
1.81713e-06
-1.65716e-05
5.22439e-05
1.92713e-05
-4.25105e-05
-9.05948e-05
6.88445e-06
2.94283e-05
9.43244e-06
3.90755e-05
-4.01768e-05
2.79773e-05
-3.30703e-05
9.02758e-05
1.87055e-05
2.19361e-05
-2.38942e-05
3.89215e-05
7.9507e-05
-1.43028e-06
-1.07868e-05
-4.3123e-05
-5.63422e-05
3.65556e-05
5.69178e-06
-2.97664e-05
3.1851e-05
-3.75102e-05
-1.9769e-05
6.36958e-05
5.06418e-05
-4.80588e-05
-4.18767e-05
-9.31241e-06
-2.6356e-05
-1.3366e-05
5.09444e-05
7.4107e-05
-1.38809e-05
-5.52128e-05
-6.02385e-05
2.25471e-05
4.01654e-05
-3.56471e-05
4.60853e-05
6.04027e-05
1.00423e-05
-2.72851e-05
-6.84016e-05
1.03851e-05
-3.90665e-05
-6.67312e-05
1.89327e-05
-3.86649e-05
-7.26084e-05
1.55343e-05
3.44659e-05
-9.18179e-06
-2.52385e-05
3.4999e-05
6.71947e-05
-7.81461e-06
-2.34848e-05
1.90875e-05
-3.45565e-05
-3.24717e-06
3.17623e-05
-4.33619e-05
-4.44566e-05
-1.29163e-05
6.1907e-05
-1.54725e-05
-1.92425e-05
-9.33534e-07
1.07799e-05
-2.67865e-05
6.43283e-05
6.28177e-07
3.16112e-05
-3.45437e-05
-2.02109e-05
3.29812e-05
-8.92952e-06
-5.33777e-05
-6.58387e-05
-1.97743e-05
2.38325e-06
3.65477e-05
8.36747e-06
-1.8779e-06
1.48289e-05
-2.75739e-05
4.24774e-05
2.79523e-05
9.69103e-05
6.65833e-05
1.9426e-05
1.45668e-05
-1.36637e-05
5.90174e-05
5.77697e-05
-3.53304e-05
8.6556e-05
-1.88479e-05
-2.10227e-05
-5.39373e-05
1.12336e-05
-1.22987e-05
7.03164e-05
-1.0787e-05
6.14917e-06
5.7793e-05
3.47518e-05
-3.56399e-05
-5.85616e-06
4.38269e-05
2.99951e-05
1.48881e-05
3.09409e-06
-6.29966e-05
1.44142e-05
-9.3447e-05
4.10875e-05
-3.34161e-05
-7.29719e-05
6.78666e-06
-4.31375e-05
3.26067e-05
-5.40697e-05
-3.51891e-05
-7.38085e-06
-3.46785e-05
7.78143e-06
5.28593e-05
1.66986e-05
-1.61526e-06
7.61892e-05
-2.89641e-06
5.27892e-05
3.30998e-05
2.69057e-05
3.20121e-05
-4.14015e-05
-7.91211e-05
6.70413e-06
-3.7106e-05
3.38652e-07
3.12879e-05
2.5589e-05
4.62428e-05
-7.34499e-06
3.85571e-05
-1.8248e-05
8.60399e-05
-3.51761e-05
-2.42109e-05
-2.44777e-05
3.96882e-05
3.9636e-05
-5.5962e-06
-1.59822e-05
5.26491e-05
-3.12832e-05
-9.51334e-06
1.32092e-05
3.03081e-05
4.01441e-05
-6.21302e-05
6.55779e-06
-4.02805e-05
7.68167e-05
-2.30571e-05
2.42749e-06
-2.36236e-05
-7.6571e-06
1.05554e-06
-7.58456e-05
1.89055e-05
4.24921e-05
2.73332e-06
-4.68805e-05
-0.000111356
2.32969e-05
1.92826e-05
1.66951e-06
4.11416e-05
-1.26257e-05
3.11492e-06
-2.15392e-05
-7.4189e-05
3.57796e-05
1.81667e-05
-4.43208e-05
1.38063e-05
2.49423e-05
-1.40071e-05
-5.45261e-05
-1.59673e-05
4.8483e-05
-4.49934e-06
-0.000139602
5.79741e-05
3.08061e-05
0.000100899
-3.72755e-05
3.82719e-05
1.96723e-05
-2.19459e-05
-3.16994e-05
-3.15025e-05
5.79793e-05
8.84747e-05
-9.06759e-06
-5.99886e-05
9.21846e-06
8.46409e-06
-1.86265e-08
-2.0785e-05
-3.90377e-05
0.000130274
-3.4321e-05
-4.70516e-05
5.37116e-05
-2.79641e-06
2.82261e-06
-3.7919e-05
-6.05409e-05
4.75422e-05
4.84362e-05
-1.75375e-05
3.74631e-05
-5.19102e-05
4.18173e-05
3.39493e-05
-6.99726e-05
2.73663e-05
3.88061e-05
1.67806e-05
-5.26782e-05
6.2869e-05
-2.19619e-05
-4.31015e-05
-7.4032e-06
-2.66798e-05
4.25463e-05
3.64985e-06
2.75733e-05
-4.73879e-05
-6.43707e-06
3.03091e-05
-2.26302e-05
-8.1934e-05
-4.95826e-05
1.36234e-05
3.3637e-05
4.5353e-05
-3.78167e-05
6.72049e-05
-2.02059e-05
-6.23039e-05
4.74694e-05
4.62763e-05
1.2405e-05
3.8288e-05
2.15034e-05
5.87148e-05
-6.50006e-05
-4.25663e-05
-1.34122e-05
4.39067e-05
4.787e-05
-2.23205e-05
-6.0518e-05
1.98314e-06
-2.43727e-06
-3.00116e-05
1.48921e-05
2.92048e-05
7.28872e-05
7.0664e-05
-3.58248e-05
-0.000140627
2.58459e-05
1.2035e-06
-2.88261e-05
-4.69701e-05
5.72423e-05
3.12584e-05
1.75567e-05
-0.000107817
-1.58476e-05
1.13323e-05
3.99519e-05
3.28134e-05
-4.30105e-05
3.20361e-05
3.74882e-05
-3.91933e-05
2.83312e-05
3.71941e-05
-1.37138e-05
3.56368e-05
-5.4416e-05
8.3045e-05
3.0324e-05
-1.94272e-05
-2.67292e-05
6.8428e-05
4.12178e-05
-2.91597e-05
3.35346e-05
3.92142e-05
3.68374e-05
-3.48373e-05
-2.81511e-05
1.41668e-05
3.52949e-05
-7.15663e-05
-2.16158e-05
4.60054e-05
3.64995e-05
2.3186e-05
-3.1236e-05
-7.13482e-05
2.25483e-05
-3.52724e-05
7.69856e-05
-4.16432e-05
-1.3786e-05
7.45143e-05
-5.4067e-05
4.00399e-06
-1.77837e-05
-5.58048e-05
2.01229e-05
5.96023e-06
5.05818e-05
6.31157e-05
-6.58249e-05
8.14194e-05
-4.32242e-05
-2.44337e-05
2.67206e-05
4.39433e-06
9.56818e-06
7.65547e-06
4.3906e-06
-4.2216e-05
2.17028e-05
1.01277e-05
-1.56355e-05
-7.88143e-05
-2.79716e-05
-7.33091e-06
2.62836e-05
6.22834e-06
2.38391e-05
-8.04081e-06
5.26162e-05
3.0096e-05
-3.07956e-05
-8.68583e-05
1.14742e-05
3.87334e-05
1.11604e-05
-2.85618e-05
-9.12475e-06
-2.48151e-06
2.21182e-05
-3.22971e-06
2.53445e-05
2.25463e-05
3.20963e-05
-2.0874e-05
-3.06289e-06
6.05569e-06
-3.41353e-06
3.49663e-05
-2.4487e-05
5.34734e-05
1.9663e-05
1.27885e-05
-1.15688e-05
2.92528e-05
2.87127e-06
3.39585e-05
-1.87167e-05
-2.88652e-06
-6.90417e-05
2.46686e-05
-5.03927e-06
-1.26845e-05
2.05979e-05
-2.63398e-05
-2.66207e-06
-3.02474e-05
-7.38932e-05
-1.16542e-05
0.000124287
-9.67178e-05
2.30564e-05
4.08881e-05
1.12082e-05
1.89695e-05
2.29748e-05
-6.50403e-05
-1.85567e-05
-3.58941e-05
9.88762e-06
-2.2508e-05
-0.000114619
5.06435e-05
-0.000120174
-5.2155e-05
0.000129995
-2.85547e-05
-3.29313e-05
1.39811e-05
-3.08768e-06
-4.58444e-06
-6.87172e-05
5.01401e-07
2.5406e-05
-3.0681e-05
-4.83696e-05
-2.09835e-05
3.77467e-05
3.99079e-05
1.09905e-05
-3.37751e-05
2.43069e-05
4.91922e-05
4.58608e-05
-7.13917e-05
-6.57418e-05
-4.48683e-05
5.14663e-05
2.45066e-06
-1.54739e-06
-6.9671e-05
3.41795e-07
-1.04236e-05
6.89412e-06
-2.2904e-05
-2.35566e-06
-3.06225e-05
3.27417e-05
-3.2268e-06
-1.03372e-05
-2.52568e-05
2.84619e-05
9.52234e-05
-3.02618e-05
3.21709e-05
4.43812e-05
-4.54088e-05
-0.000101101
-3.30774e-05
0.00011101
6.25442e-05
-5.28281e-05
-0.000107186
-1.18129e-05
6.8567e-05
3.46117e-05
-5.40467e-05
-5.21379e-05
4.75182e-05
-4.06376e-05
-0.000119435
6.12033e-05
-1.81566e-05
-3.11732e-05
0.000105493
-4.54731e-05
-9.29438e-05
-5.38456e-05
9.50543e-06
-5.54991e-05
1.67229e-05
4.28152e-06
-7.23698e-05
6.52415e-06
4.59248e-05
6.7777e-06
-2.06684e-06
5.32221e-05
2.83381e-05
-3.75983e-05
-4.8551e-05
0.000104193
-1.62811e-05
-5.72798e-06
-2.96998e-05
-2.67266e-06
-4.58125e-05
8.22754e-06
-1.31112e-05
-4.38887e-05
-3.3671e-05
-5.49548e-05
4.80604e-05
-3.43906e-05
5.50933e-05
-3.26773e-05
-2.49944e-05
-9.60892e-06
3.26965e-05
-4.34383e-05
8.21741e-05
3.99072e-06
1.01074e-05
-2.64161e-05
-1.68465e-06
5.18317e-05
-5.05236e-05
7.6534e-05
-2.69967e-05
-2.84479e-05
5.25336e-06
1.91292e-05
5.75269e-05
-1.55069e-05
1.41476e-05
1.54792e-05
9.67544e-05
-2.60592e-05
2.79746e-06
-6.86487e-05
-4.36418e-06
5.35522e-06
-6.22938e-07
-1.12273e-05
2.76119e-05
-7.06457e-05
2.38861e-05
3.64638e-05
-5.86151e-06
-1.47324e-05
5.85362e-05
-1.46381e-06
5.05941e-07
-8.36363e-06
-6.68819e-05
-7.45861e-06
-5.66775e-05
5.49143e-05
-1.55683e-05
-6.51169e-05
1.93968e-05
-2.5009e-05
1.49552e-05
4.44496e-05
-8.8783e-06
-5.64919e-05
-7.07044e-05
-8.34162e-06
-2.96305e-05
-2.15252e-06
-1.83213e-05
-1.89291e-06
-0.000102778
8.74815e-06
3.24823e-05
3.07967e-05
-0.000103662
-3.61562e-05
2.02424e-05
8.39117e-05
4.75231e-06
-1.31453e-05
3.19695e-05
7.15372e-07
-3.71368e-05
-7.51382e-05
-6.92119e-05
-2.21306e-06
-7.09703e-05
1.36695e-06
-4.37517e-05
5.21005e-05
-3.2033e-05
-2.11225e-05
9.38191e-06
-1.06054e-06
4.85114e-06
-2.59298e-05
5.7298e-05
-2.03844e-05
4.02201e-05
1.71227e-05
-4.36116e-05
4.79072e-06
-4.09901e-05
-3.4878e-07
2.30945e-05
-3.31623e-05
1.34483e-05
1.23588e-05
-2.61036e-05
-4.63813e-05
1.17682e-05
-4.40204e-05
0.000100773
4.16168e-05
5.95759e-05
5.72717e-06
3.63542e-06
3.72173e-05
-2.83862e-05
-2.65326e-05
-3.87033e-05
-3.32441e-05
-2.94554e-06
-4.8338e-06
-7.42385e-05
-9.21185e-05
-4.1292e-05
9.36041e-05
1.79686e-05
2.46145e-05
5.07903e-05
-3.90918e-05
-4.86943e-05
-6.07769e-05
2.91872e-05
-7.01526e-05
2.39774e-05
5.71003e-05
1.4381e-05
-8.54449e-05
6.48929e-05
5.64079e-06
1.15007e-05
-0.000120717
5.33739e-05
7.36078e-05
5.39119e-06
1.38741e-05
1.18411e-05
-9.65106e-06
3.6695e-05
-3.0343e-05
4.71817e-05
6.17242e-05
-4.68059e-06
-4.04324e-05
-2.98402e-05
4.83403e-06
-1.19233e-06
4.36949e-05
-1.84926e-06
-1.13769e-05
-1.70611e-05
7.82479e-05
-4.58327e-06
1.79142e-05
-3.62851e-05
-7.78631e-05
7.38347e-05
-9.19309e-05
-5.20796e-06
2.09281e-05
2.30642e-06
7.05889e-05
3.83815e-05
7.42136e-06
5.50145e-05
-1.01445e-05
4.60945e-05
-1.68376e-05
-5.88744e-05
-4.91899e-05
5.14216e-05
5.45883e-05
-1.9853e-05
5.81004e-05
3.0201e-05
1.38801e-05
2.24968e-05
6.25567e-05
6.90168e-06
-8.80084e-05
-1.3425e-05
-5.00772e-06
4.87004e-05
5.99248e-05
6.30917e-05
1.42655e-06
2.14428e-05
-2.6638e-05
-9.90415e-06
-6.22043e-05
-1.60283e-05
3.25943e-05
-3.85356e-05
-1.90417e-05
5.31538e-05
-2.28162e-05
1.54098e-05
-4.23555e-05
-5.64731e-07
-5.11481e-05
-1.07908e-05
-0.000114607
2.06346e-05
1.91705e-05
7.28536e-05
2.73268e-05
-4.94909e-05
5.05778e-05
5.27867e-05
6.41991e-05
-7.99028e-06
4.43967e-05
-4.8651e-05
-2.58863e-05
-3.12885e-05
9.76641e-05
-4.46029e-05
-4.87088e-05
2.70448e-05
-5.04587e-05
1.36555e-05
-9.01836e-05
-0.000131356
6.04799e-05
5.67492e-05
-1.70097e-05
2.47726e-05
-9.1081e-06
5.16702e-05
-8.06585e-05
3.82913e-05
3.78345e-05
1.59068e-05
-7.97631e-06
-6.65523e-06
3.57416e-05
3.13777e-05
-9.32618e-05
-4.72956e-05
-9.38078e-05
-4.97692e-05
6.84746e-05
-3.5439e-05
9.14512e-06
-3.6623e-05
3.87209e-05
1.69347e-05
4.47611e-05
-5.40493e-05
2.94936e-05
6.61323e-05
1.22413e-05
-6.64291e-05
1.13342e-06
1.48161e-05
-1.36935e-05
6.08948e-05
-9.08622e-07
7.89306e-05
9.09681e-06
5.26162e-05
-9.66364e-05
3.41132e-05
6.60529e-06
-1.27821e-05
-4.43455e-05
-2.06702e-05
3.15066e-06
-9.3074e-07
-6.30612e-05
-0.000100799
-4.15874e-05
-9.15085e-05
-4.8186e-05
5.6292e-05
-1.5246e-05
-5.22907e-05
-2.41199e-05
-1.0829e-05
-4.57694e-05
-4.23095e-05
1.19057e-05
2.83612e-05
-1.41365e-05
-5.28242e-05
-6.13476e-05
1.77327e-05
1.0733e-05
-2.0828e-05
5.96305e-05
1.79093e-06
2.51197e-05
-2.36358e-05
5.88675e-05
3.18955e-05
4.7611e-05
-7.31894e-05
7.22463e-05
-0.000100922
-6.24056e-06
6.4931e-05
8.48959e-06
3.2307e-05
-3.30701e-06
-4.32206e-05
2.37767e-06
1.99969e-05
-1.27292e-05
9.59355e-06
3.61403e-05
2.7542e-05
6.92136e-05
-2.72458e-06
-6.32236e-05
-6.14533e-06
-7.611e-06
-1.02111e-05
4.45031e-05
5.20085e-06
2.67308e-05
-6.62939e-06
-4.79817e-06
-2.94806e-05
1.43545e-05
5.68992e-06
6.79197e-05
9.01218e-06
3.43907e-05
1.84244e-05
1.29042e-05
-4.4652e-05
3.45937e-05
3.36547e-05
1.9382e-06
-1.88092e-05
4.46872e-05
-5.2389e-05
6.75365e-05
7.7465e-05
6.37176e-06
8.13848e-05
-3.18104e-05
2.20671e-05
-1.73561e-05
-2.87808e-05
-6.86576e-05
1.1924e-05
2.47911e-05
1.23706e-05
-3.48674e-05
2.1677e-05
-2.2075e-05
-3.52517e-06
1.23348e-05
1.70898e-06
2.97128e-05
-6.88565e-05
-1.3374e-05
9.18957e-05
-3.43513e-05
1.47284e-05
-1.23635e-05
4.94566e-05
2.42065e-05
-4.44684e-05
5.05931e-05
0.000106778
9.66932e-05
6.52506e-05
8.90228e-07
-7.20704e-06
-1.14564e-05
6.66905e-05
-5.448e-06
4.01791e-05
-2.3398e-05
4.17558e-05
-3.41279e-05
-2.13978e-05
6.28131e-06
-2.62642e-05
3.58208e-05
-8.93135e-05
4.69466e-05
-3.57552e-05
3.30249e-05
2.3464e-05
-9.97118e-05
2.21338e-05
3.57017e-05
-1.87461e-05
2.13257e-05
-6.78238e-05
2.71613e-05
-5.16977e-05
5.68143e-05
4.88441e-05
-1.74807e-05
3.8041e-05
4.5417e-05
1.17873e-05
-8.38004e-06
2.07489e-05
-2.05641e-05
5.28254e-05
-7.57058e-05
-4.26271e-05
-7.67352e-06
2.04984e-05
-1.54355e-05
-3.12331e-05
1.17399e-05
6.21652e-05
4.88078e-05
4.33601e-06
-0.000127571
-5.02244e-05
-6.86673e-05
-6.60995e-05
3.09132e-05
7.61508e-05
-7.01356e-05
-7.02962e-06
9.2847e-06
4.82403e-05
3.83961e-06
8.47306e-06
-6.75761e-05
-1.85831e-05
1.21737e-05
-8.66782e-06
-3.19518e-05
-1.42833e-05
3.18408e-06
7.33067e-06
1.82408e-05
2.56519e-05
-6.78838e-05
-4.71435e-06
3.49288e-05
-5.0533e-05
1.07934e-05
-1.50149e-05
-1.63051e-05
-2.9539e-05
9.53886e-05
2.63907e-05
-1.76689e-05
-2.15021e-05
-1.27992e-05
8.03347e-06
-1.35814e-05
2.63907e-05
-7.1855e-06
-1.90848e-05
2.17275e-05
5.39325e-05
-9.03434e-05
5.79043e-05
-1.44776e-05
-1.46055e-05
-3.83224e-05
-4.54382e-05
2.61615e-05
5.74822e-05
2.07161e-05
1.80583e-05
2.61938e-05
-7.22194e-06
-2.65967e-05
2.38707e-05
-3.81799e-05
-3.29994e-05
2.86612e-05
4.19561e-06
5.34139e-05
-1.29021e-05
-4.54625e-06
9.10496e-05
1.63323e-05
1.69148e-05
-4.63275e-05
3.55745e-05
-3.9172e-05
2.29459e-05
1.72228e-05
3.0864e-06
6.80584e-05
6.72813e-05
-1.70235e-05
-7.54651e-06
4.55864e-05
-1.23874e-05
-6.61297e-06
0.000122596
3.26281e-05
1.82124e-05
2.49492e-05
-5.22541e-05
-2.22387e-05
-5.70166e-05
1.30455e-06
7.69016e-06
2.41784e-05
1.07716e-05
-5.20686e-05
1.76704e-05
6.44933e-05
-6.11888e-05
5.44072e-05
-4.49317e-05
-7.05204e-05
6.23136e-06
3.27926e-05
4.70877e-05
1.32737e-06
1.32957e-05
-7.78594e-05
-2.81832e-05
-6.89272e-06
0.000112601
3.68477e-05
-3.34254e-05
4.85627e-05
3.18344e-05
1.14884e-05
6.94896e-05
0.00013327
-7.38588e-05
-4.20361e-05
-1.68969e-05
2.04113e-05
8.13301e-06
-1.95546e-05
3.47553e-05
5.05907e-05
-6.30392e-05
-4.2269e-05
1.79629e-05
5.70349e-05
-6.66361e-07
2.83975e-05
-3.47798e-05
-8.23158e-05
-3.16931e-05
-5.51024e-05
-1.69487e-05
6.43999e-05
-5.57776e-05
5.2521e-05
-0.00011234
-7.10646e-05
-1.52234e-05
-1.6027e-05
-3.59298e-05
5.28323e-05
4.40271e-05
-4.75452e-06
-6.05783e-05
-2.03247e-05
1.72127e-05
2.40913e-05
-2.15e-05
-3.80281e-05
1.84209e-05
-5.22971e-05
-1.48044e-05
-9.04264e-05
-1.86133e-05
-1.40981e-05
0.000121307
-2.547e-05
5.25208e-05
3.79472e-05
3.11936e-05
-3.85302e-05
-5.10272e-06
-4.49663e-05
2.62944e-05
1.12432e-05
-1.86058e-05
1.74432e-05
-3.76212e-05
8.71159e-06
-3.17949e-05
7.14648e-05
-7.47017e-05
0.000101809
5.19642e-05
3.18051e-05
1.94159e-05
4.63661e-05
-3.00445e-06
1.62402e-05
7.99992e-05
3.67616e-06
-1.37994e-05
-5.21089e-05
-5.62188e-05
2.68223e-05
-3.78017e-05
-4.78227e-05
2.88638e-05
-2.68994e-05
-1.1655e-05
-5.028e-05
3.1077e-05
-2.00596e-05
3.81089e-05
-8.71739e-05
-4.6905e-05
1.67191e-05
4.92432e-05
9.12801e-06
1.42562e-06
-6.69422e-05
-7.27302e-05
-1.43615e-05
-9.74489e-06
-1.56977e-05
2.67373e-05
-9.21222e-05
-5.88645e-05
-1.2588e-05
5.106e-05
-8.97492e-05
7.86014e-05
1.30896e-05
1.51681e-05
-0.000114672
-4.19718e-05
1.06478e-05
8.84153e-05
-6.75325e-06
-6.93067e-06
1.08082e-05
-9.15197e-05
-1.49583e-05
1.07785e-05
5.18091e-05
-3.28285e-05
4.25936e-05
9.43081e-06
7.85454e-07
4.03611e-05
-3.83484e-06
2.66731e-05
-2.21876e-05
6.1118e-07
2.16416e-06
1.83089e-05
-2.01631e-05
-7.52346e-05
-8.20158e-05
-4.08834e-05
3.06889e-05
3.11454e-05
-1.76034e-05
-1.14893e-05
3.87504e-05
9.27434e-06
1.17533e-05
-4.44876e-05
-5.27482e-05
-4.26524e-05
9.6072e-05
-3.91066e-05
-6.17567e-05
-4.51249e-05
4.71994e-06
-4.15777e-05
-1.74798e-06
2.57664e-05
4.81146e-05
-3.5077e-05
2.89145e-05
3.42634e-05
2.19488e-05
-2.03154e-05
-2.8429e-05
2.95846e-05
6.23257e-05
1.81494e-05
-1.77093e-05
-4.22896e-05
-3.51807e-06
6.32224e-05
3.54694e-06
7.63219e-06
-5.29387e-06
1.01699e-05
2.74982e-05
2.91365e-05
-2.60758e-05
-5.97399e-05
8.67879e-05
3.29313e-05
-1.45723e-05
-1.42371e-05
5.72901e-05
3.8431e-06
9.81885e-05
0.000121366
-2.85936e-05
2.49981e-05
7.872e-06
-1.86714e-05
-1.70149e-05
-7.32372e-05
0.000112081
-1.25971e-05
-6.01783e-05
7.86269e-06
3.08845e-05
9.78331e-06
7.8408e-06
1.71361e-05
4.86616e-08
-2.67227e-05
-2.5681e-05
-4.13363e-05
-4.55835e-05
-1.76239e-05
-7.76583e-06
-4.82688e-05
7.13979e-05
1.64238e-05
3.01735e-05
-3.19595e-05
1.39842e-05
-1.39404e-05
-1.55891e-05
4.47663e-06
-1.65857e-05
8.27657e-05
5.56017e-05
5.67222e-06
3.54116e-05
2.86184e-06
-1.63058e-05
2.07495e-05
9.6322e-06
-1.45016e-05
-4.88878e-05
-4.07483e-05
-9.69227e-06
4.12576e-05
-2.158e-05
-3.41525e-05
5.64967e-05
-1.37313e-05
-5.04194e-05
3.84743e-05
-2.33632e-05
-1.19593e-06
-5.9447e-05
5.95232e-06
6.40079e-05
-7.39722e-05
-2.23716e-05
-4.28909e-06
-7.43158e-05
-1.58098e-05
5.6006e-05
-2.41022e-05
5.20146e-05
4.58726e-05
-3.16431e-05
0.000122277
2.89968e-05
1.20708e-05
-2.74091e-05
-3.44681e-05
-3.20198e-05
5.98461e-05
4.27907e-05
-2.54267e-05
-1.62862e-05
4.25267e-05
4.55979e-05
-7.08052e-05
-4.53845e-05
-1.75915e-05
6.00133e-05
3.70807e-05
4.36972e-05
-7.64546e-06
2.1755e-05
1.48435e-05
1.47815e-05
3.49523e-05
1.44988e-05
-7.17352e-05
5.90791e-05
3.93527e-05
-1.62121e-05
4.74527e-05
-1.84559e-05
-3.84232e-05
8.46088e-05
5.78985e-05
5.29925e-05
-2.82949e-05
-1.40261e-05
-3.38175e-06
6.56868e-05
1.70161e-05
1.81665e-05
-1.45178e-05
-3.2216e-05
8.30193e-06
5.70646e-05
3.72084e-05
6.89616e-05
3.92867e-05
3.07861e-05
-1.59348e-05
4.17499e-05
8.47294e-06
-3.21827e-05
-1.07551e-05
-1.45924e-05
5.39321e-05
1.21883e-05
2.11238e-05
-2.64748e-05
1.12989e-05
-2.39079e-05
-1.44509e-05
1.09989e-05
-7.73533e-06
4.69061e-06
1.68596e-05
6.67057e-05
1.57987e-05
-0.000107579
-8.24989e-05
6.5231e-06
-5.85077e-05
5.17326e-05
1.84865e-05
1.66774e-05
-7.07679e-05
5.68526e-06
-1.86227e-05
-4.3344e-05
5.83275e-05
-4.15356e-05
-7.76742e-05
-1.33207e-05
-3.74747e-05
-1.10012e-06
5.06307e-05
3.4345e-05
5.21397e-05
2.95315e-05
4.71442e-05
-2.02371e-05
0.000134813
5.51664e-05
-3.82711e-05
-1.12213e-05
0.000111733
1.1283e-06
-1.38336e-05
-2.07325e-05
-1.05337e-05
5.7515e-06
2.51085e-05
-6.47181e-05
1.22271e-06
0.000118249
2.02318e-05
-6.96786e-05
-8.3458e-05
9.0689e-05
4.29547e-05
-6.09942e-05
-2.33622e-06
4.52413e-06
-2.48617e-05
-7.4984e-05
-6.30156e-06
3.39793e-05
6.28864e-05
-2.65869e-06
-2.97547e-05
-6.67727e-05
-1.0831e-05
7.42334e-06
3.03178e-05
-1.26918e-05
1.26479e-05
-3.24745e-05
-1.54036e-05
4.65953e-05
-6.06407e-07
-7.33236e-05
-3.61172e-05
3.19347e-05
5.07119e-05
5.52048e-05
-3.86606e-05
-2.71013e-05
-1.73203e-06
4.00438e-05
-1.2883e-05
1.1524e-05
2.75383e-05
1.51002e-05
2.02365e-05
3.27821e-05
-0.000103583
-2.37208e-05
5.62994e-05
-3.56054e-05
-8.56417e-05
0.000101617
-2.90701e-05
2.15791e-05
-5.19501e-05
6.29318e-06
-5.95591e-05
3.80212e-06
-4.0116e-05
2.2179e-05
-9.73791e-06
6.35828e-05
-2.76126e-05
-2.54394e-05
9.06724e-05
-5.55882e-05
-3.51443e-05
1.47809e-05
-2.3094e-05
3.46848e-05
-4.10143e-05
-1.09319e-05
2.98406e-05
3.45649e-05
-4.78458e-05
-5.78742e-05
-3.72987e-05
3.58616e-05
-1.02358e-05
-1.7675e-05
3.83469e-05
4.55067e-06
-3.07257e-05
-6.31753e-05
6.19097e-06
-5.68883e-05
0.000120349
-0.000117729
-6.80871e-05
1.01869e-05
-1.02161e-05
2.82166e-05
-1.96019e-05
-6.25546e-06
3.5075e-05
9.93186e-06
-5.96485e-05
5.40576e-05
-2.97577e-05
-7.25267e-07
-9.39111e-06
-2.64804e-05
5.89006e-05
9.35841e-05
7.95011e-05
-1.68916e-05
-6.82935e-05
-7.77035e-05
4.75625e-05
-1.31759e-06
1.17449e-05
5.16308e-05
-6.31512e-05
2.21431e-05
3.45726e-05
-3.89621e-05
4.92727e-05
9.85304e-06
-2.73683e-05
-7.18014e-05
-2.20723e-06
9.41264e-06
5.68598e-05
-2.01401e-05
-8.62195e-06
7.08981e-06
9.58098e-07
-2.9198e-05
-3.67716e-05
9.87318e-07
-7.08341e-06
-7.77075e-05
4.07126e-05
2.2804e-05
-2.33534e-05
-2.82733e-05
6.35616e-06
-3.10615e-05
-2.37788e-05
5.87659e-05
3.77755e-05
-8.88545e-05
1.88742e-05
2.82156e-05
2.42069e-05
-1.97265e-05
3.13717e-05
2.67724e-05
-2.78914e-05
-1.14416e-05
4.39796e-05
-1.8472e-05
6.2898e-06
-9.41614e-06
3.67078e-05
-1.65388e-05
-2.2191e-05
-3.26347e-05
2.11541e-05
-9.05289e-05
-2.25262e-05
7.17805e-06
-1.67801e-05
-5.12954e-05
-4.15264e-05
3.02582e-05
1.87581e-05
1.34516e-05
6.79976e-05
0.000103678
-2.68697e-05
-5.62216e-05
-7.36839e-06
-8.7294e-06
-8.22137e-06
-0.000119192
3.07655e-05
9.9708e-05
7.9355e-05
2.35233e-05
2.89513e-06
3.23566e-05
6.61949e-06
-1.27405e-05
-1.12373e-05
3.50154e-06
6.08944e-05
-6.73486e-06
5.99331e-05
-9.1081e-06
-4.93439e-05
-1.25011e-05
-1.7921e-05
3.41785e-05
-3.37975e-05
7.3954e-06
5.94533e-05
0.000102923
1.58965e-05
2.07429e-06
6.60843e-05
-5.49533e-05
-6.42202e-05
4.83659e-06
5.86053e-05
-3.53621e-05
-0.000113618
-3.2186e-05
8.25268e-06
3.03726e-05
4.09468e-06
1.25885e-05
-2.57912e-05
4.03018e-06
-1.99422e-05
-0.000115459
-8.30321e-06
2.34322e-05
1.67682e-05
-9.89949e-06
-1.77938e-05
3.41063e-05
5.38378e-05
-8.89879e-07
-3.26859e-05
-1.44829e-05
1.08397e-05
2.86293e-05
1.41949e-05
-1.13216e-05
4.36336e-05
-9.70031e-06
4.36601e-05
-6.26e-06
-6.49596e-05
8.33399e-05
7.37363e-06
-2.33594e-05
-5.29962e-05
8.21927e-06
-7.67079e-05
-5.47335e-05
1.69985e-05
-2.35287e-05
6.93038e-05
-5.89243e-05
-1.58963e-05
-3.79665e-06
-4.3655e-05
1.74984e-06
6.90878e-06
-1.56343e-05
-1.26814e-05
-6.31332e-06
-2.87474e-05
6.35838e-05
-1.27365e-05
2.98873e-05
-1.94596e-05
0.00010666
-6.87311e-05
2.64239e-06
7.9783e-05
-7.28979e-05
-2.11628e-05
-1.82888e-06
-5.65464e-06
-3.07187e-05
-1.65775e-07
6.13107e-05
-4.53605e-05
-3.93717e-06
2.74228e-05
5.10012e-05
6.30144e-06
2.15231e-05
-5.9315e-05
-4.52383e-05
-4.56916e-05
-4.39745e-05
-2.38915e-05
-5.03425e-05
-2.24271e-05
-6.28912e-05
1.11946e-05
0.000117078
1.08848e-05
1.60362e-06
7.11589e-06
-1.24839e-05
-9.79607e-05
1.17279e-05
-2.4335e-05
-6.5287e-05
-4.57343e-05
9.77495e-05
-2.84512e-05
2.46852e-05
2.89713e-05
-3.3951e-05
9.1926e-05
-5.0638e-05
-3.13993e-05
4.17698e-07
2.26259e-05
5.2394e-05
-4.63512e-05
3.01935e-06
-7.2587e-05
3.62423e-05
4.53797e-05
5.10275e-05
4.96118e-05
1.14617e-05
6.31437e-06
1.38573e-05
1.41538e-06
1.35629e-05
-5.94303e-05
-5.26092e-05
-3.14445e-05
3.68985e-05
-1.13051e-06
4.3941e-06
1.65968e-05
1.01102e-05
-4.56732e-05
-5.67067e-05
-2.16055e-05
3.75346e-06
3.02102e-05
2.47172e-05
-3.70555e-05
-4.6816e-05
-8.03267e-05
-3.89206e-05
8.46451e-05
4.35198e-05
1.98975e-05
-8.17585e-06
-6.95721e-06
-5.38765e-05
3.58443e-05
-6.18508e-05
7.90425e-05
-1.59476e-05
-3.99172e-05
-6.26174e-05
3.51216e-05
5.15337e-05
1.97045e-06
-3.47057e-06
-9.95002e-06
5.45722e-05
-4.35942e-05
-3.20035e-05
3.58503e-05
-2.33706e-05
-7.19377e-06
3.16276e-05
-2.36784e-05
4.79082e-05
6.11598e-05
-1.50184e-05
5.8336e-05
-1.60109e-05
-5.55502e-05
-4.1118e-05
3.92951e-05
8.73667e-05
-9.01846e-06
2.39071e-05
5.31237e-05
-2.11794e-06
3.75918e-05
-6.11141e-05
-5.37825e-05
4.7565e-05
-2.97431e-05
-7.41601e-05
-1.3014e-05
3.82913e-06
-4.95901e-05
-1.00627e-05
1.48064e-05
3.36813e-06
-4.77561e-05
-3.2661e-05
4.77978e-06
4.40958e-05
4.04313e-05
-4.65779e-05
-4.65793e-05
9.95398e-06
6.58097e-05
1.7775e-05
-1.76018e-05
-0.000102062
4.74709e-05
-2.01659e-05
-7.77573e-06
-8.79879e-06
4.50331e-05
-5.59166e-06
-5.70051e-05
-1.9311e-05
-3.39666e-05
4.75906e-05
2.16512e-05
-2.22094e-05
-2.47791e-05
-2.54152e-05
-5.89085e-06
-1.15654e-05
-4.13182e-05
-4.02362e-05
1.2063e-06
-4.48261e-05
2.04253e-05
3.38093e-06
-2.82915e-05
3.01644e-05
9.34803e-06
-6.71307e-05
-4.05738e-05
7.09333e-05
-3.39558e-05
-2.67518e-05
2.17741e-05
1.56355e-05
1.44396e-05
-8.90228e-06
-1.19935e-05
1.44318e-05
8.7028e-05
-9.69972e-07
1.24231e-05
-5.59277e-05
-1.92777e-05
3.90811e-05
3.07022e-06
-4.05498e-05
7.56618e-06
6.7285e-05
3.94987e-05
-7.47539e-05
-3.48645e-05
2.46887e-05
-5.16158e-05
3.76708e-06
-4.08542e-05
-1.83193e-05
8.32835e-05
-3.53507e-05
-3.56359e-05
-9.10205e-06
-2.37033e-05
-7.61584e-05
-4.31737e-05
-3.44524e-05
3.03322e-05
-5.93204e-05
-4.43417e-05
-1.38482e-05
2.80145e-05
4.43448e-05
7.11239e-06
-4.19095e-07
-3.37956e-05
5.6318e-05
4.62114e-05
-7.51624e-05
0.000106831
-4.85464e-05
-1.38164e-05
-8.41799e-07
-1.47609e-05
-6.57e-05
-1.5521e-05