# vtk DataFile Version 1.0
Net Charge Density
ASCII
DATASET STRUCTURED_POINTS
DIMENSIONS 256 128 1
ORIGIN 0 0 0
SPACING 0.15625 0.15625 1
POINT_DATA 32768
SCALARS rhonet float
LOOKUP_TABLE default
-3.89619e-06
-9.51276e-05
0.000144792
9.63219e-05
3.56844e-05
0.000120451
-0.000118445
9.18583e-05
0.000154216
2.28998e-05
-3.75601e-05
0.000108725
0.00010382
7.94461e-05
0.000109347
4.99607e-05
8.77432e-05
0.000140236
4.05876e-05
-6.79104e-05
-6.40622e-06
0.000141859
0.000144767
4.77824e-05
3.72682e-05
2.07424e-05
7.7422e-05
9.0589e-05
-1.35216e-05
-7.27426e-05
5.23027e-05
3.97237e-05
4.3669e-05
6.90083e-05
1.24413e-05
0.000171713
1.68071e-05
7.28726e-05
7.73577e-05
-5.53112e-06
2.2932e-05
6.83242e-06
0.000136404
9.39812e-05
2.09385e-05
1.8683e-05
-3.16135e-05
6.95549e-05
0.000116213
7.8872e-05
-1.20082e-05
2.49783e-05
8.34424e-05
0.000148995
3.55954e-05
1.7504e-05
0.000151011
-5.17467e-05
5.67816e-06
7.16958e-05
5.02799e-05
6.0602e-05
7.16792e-06
8.01799e-05
8.22489e-05
-8.03831e-05
4.41819e-05
0.000136175
4.09957e-05
4.82837e-05
7.9234e-05
3.67111e-05
-2.69163e-05
4.96667e-05
-1.15484e-07
5.11551e-05
4.20865e-05
-3.83081e-05
9.21618e-05
0.000106615
8.71839e-05
2.54081e-05
7.49612e-05
0.000101106
4.54684e-05
-4.48036e-06
-1.66907e-05
6.70486e-05
0.000119668
-2.3488e-05
9.00024e-05
-1.47956e-05
-3.90527e-05
-6.21448e-06
-8.99176e-05
5.22715e-05
0.000157961
2.40975e-05
9.16882e-05
-2.49443e-05
0.000157723
9.0919e-05
-3.16929e-06
9.47255e-05
3.90382e-05
0.000130971
-2.58209e-07
-6.85494e-05
2.66253e-06
7.39997e-05
0.00013342
5.79281e-05
2.02985e-05
3.3115e-05
8.04212e-05
4.36597e-05
1.22656e-05
7.49691e-05
5.09601e-05
4.32276e-05
-3.98804e-05
-3.45638e-05
4.04443e-05
2.44898e-05
0.00011572
6.60872e-05
1.82551e-05
8.13095e-05
1.99642e-05
-1.88103e-05
0.000119796
9.26165e-05
-2.24391e-06
3.77484e-05
2.03244e-05
6.79679e-06
4.46088e-05
-3.19164e-05
4.68972e-05
-1.1502e-05
-4.98407e-05
2.32954e-05
2.0962e-05
0.000160761
9.88221e-05
2.06381e-06
0.000137836
1.15243e-05
-3.11239e-05
0.000132418
1.78271e-05
2.91322e-05
0.000108428
-8.3457e-06
3.45046e-05
4.32304e-05
5.74649e-06
3.42712e-05
-5.27606e-06
1.75427e-05
7.67777e-05
2.50087e-05
0.00011271
-2.20691e-05
3.25857e-05
2.5523e-05
5.8462e-05
-6.12721e-05
0.000105448
0.000137295
2.50292e-05
4.32236e-05
7.45819e-05
0.000111579
-2.02677e-05
-8.13359e-06
8.72931e-05
-8.23225e-05
1.15582e-05
3.31805e-05
8.87692e-05
-7.06e-05
-3.1811e-05
5.65383e-06
1.04989e-05
7.98536e-05
4.14199e-05
7.20923e-05
0.000102554
7.46853e-05
2.48845e-05
0.000198125
8.16127e-05
-6.56995e-05
6.24197e-05
0.000201229
4.75225e-05
8.32756e-05
7.86672e-05
-1.63087e-05
5.95986e-05
0.00014917
4.39014e-05
3.83353e-05
-1.00757e-05
6.9771e-05
-5.98877e-05
5.34232e-05
6.86805e-05
8.5791e-05
6.81024e-05
0.000137439
0.000106096
-2.40523e-05
0.000111081
-0.000131281
0.000102691
9.90944e-05
-5.28728e-05
-3.79211e-05
8.69746e-05
0.000114877
0.000176992
3.40519e-05
7.95295e-05
5.67447e-05
-3.69132e-05
-1.51403e-05
8.69035e-05
6.86066e-05
6.22834e-06
4.16543e-05
2.36377e-05
2.60698e-05
0.000121308
-3.557e-05
-2.05769e-05
2.75008e-05
5.94512e-05
8.97958e-06
1.84993e-05
8.66945e-05
-5.82663e-05
-3.07453e-07
2.65901e-05
-1.44094e-05
-2.21955e-05
-3.95462e-05
0.000128655
-4.29596e-06
2.10487e-05
-3.8513e-05
0.000102294
2.14379e-05
2.40523e-05
4.18616e-05
-0.0001049
2.47045e-05
-6.30281e-05
-2.51192e-05
-2.38871e-05
5.12261e-05
-2.60446e-05
-7.5764e-05
4.98928e-05
-6.60461e-05
-4.29e-05
2.33413e-05
-5.99084e-05
-8.02727e-05
3.00189e-06
-4.24262e-05
4.6622e-06
1.08911e-05
-2.1575e-05
-4.0601e-06
-5.82072e-05
-6.74938e-05
-0.000106138
-1.79202e-05
-2.00457e-05
-5.72717e-05
-2.52763e-05
7.73009e-06
-3.07411e-05
-8.53869e-05
-3.53886e-05
-8.36095e-06
2.74421e-05
-7.95685e-05
-6.67486e-05
2.31334e-05
-0.000103178
-3.37882e-05
1.98337e-05
-8.20332e-05
-5.15863e-05
-4.38413e-05
8.67341e-06
3.55998e-05
-2.47126e-05
4.87419e-06
-0.000112385
-3.15172e-05
3.88795e-05
-3.39411e-05
-6.56131e-05
-4.1193e-05
-3.17378e-05
2.98239e-05
-2.85321e-05
-3.54568e-05
-2.34866e-05
-0.00011611
1.48101e-05
-3.37933e-05
4.56307e-05
-5.12688e-05
-5.7285e-05
-3.73458e-05
-3.01475e-05
-6.05668e-05
-1.00289e-05
-7.96343e-05
-0.000109192
1.21039e-05
-4.39812e-05
9.01741e-06
-1.84358e-05
1.72418e-05
-5.13535e-05
-1.04342e-05
4.76098e-05
-2.54943e-05
5.74086e-05
2.163e-07
-3.24125e-05
-5.04447e-05
-8.22565e-05
2.84828e-05
2.44658e-05
-6.16946e-05
-0.000158637
-4.16982e-05
-6.54254e-08
-1.69135e-05
8.77329e-06
5.33132e-05
3.15555e-06
-1.07945e-05
2.47139e-05
-5.96582e-06
3.43233e-05
-2.73118e-05
-6.8472e-06
-1.89513e-06
-4.36432e-05
-0.000106618
-3.96516e-05
-2.96773e-05
-3.55598e-05
1.64218e-05
-5.91238e-05
-4.27191e-05
-1.0673e-06
-5.99946e-06
5.43522e-05
-3.54238e-05
-7.13792e-05
-7.13191e-05
4.01699e-05
1.15476e-05
-5.23517e-05
-1.11541e-05
9.64548e-06
3.1899e-05
-8.57752e-05
1.39624e-05
-6.13792e-05
-7.74139e-06
-3.48631e-05
-1.67096e-05
-4.55655e-05
-6.96032e-05
1.70248e-05
-4.88102e-05
-2.07965e-05
1.59815e-05
-1.05528e-05
-2.35449e-05
-1.24415e-05
-3.31046e-05
-4.60125e-05
-1.33578e-05
-4.22455e-05
-8.32253e-06
-5.94474e-05
-7.82578e-05
8.69727e-06
-2.01957e-06
-8.38249e-05
1.0549e-05
-3.22354e-05
-4.36766e-05
-0.00011768
-8.72579e-06
-3.99579e-05
-3.83074e-05
-7.16751e-05
9.37073e-06
3.00054e-05
-1.70406e-05
-2.3999e-05
-1.85613e-06
-5.11219e-05
-2.02563e-05
-8.1348e-05
-6.40947e-05
3.6243e-05
-8.02709e-05
-7.56385e-06
2.37464e-05
2.21168e-05
-5.27815e-05
-2.42493e-06
3.60705e-05
-9.46554e-05
1.02373e-05
-2.21475e-05
3.97032e-05
-4.1351e-05
-2.55478e-05
-5.70051e-06
3.04065e-05
-6.90699e-05
-4.7768e-05
3.67505e-05
-4.79678e-06
2.05904e-06
-4.86567e-05
-0.000107547
-6.60243e-05
-2.66004e-05
-2.248e-05
-9.32976e-06
-1.88572e-05
-0.00010145
6.32252e-06
3.69594e-05
4.61028e-06
-1.0849e-05
-2.36545e-05
-8.50841e-05
-3.90917e-05
4.81096e-05
-6.97782e-06
-7.51889e-05
-6.46278e-05
-4.37899e-05
3.07566e-05
-5.53511e-05
1.83086e-06
-5.12166e-05
9.71674e-05
1.17975e-05
-4.14068e-05
-5.22413e-05
-4.84e-05
-4.73995e-05
3.2125e-05
-3.5083e-05
-7.29866e-05
1.6985e-06
-2.53875e-05
-1.98884e-05
4.5062e-06
-1.73199e-05
7.05676e-05
5.7089e-05
-6.70664e-05
-3.48977e-05
-2.73385e-05
-7.02043e-05
-2.06064e-05
2.42679e-05
8.58863e-05
-8.70344e-05
6.9344e-06
-4.34539e-05
-3.62699e-05
6.90324e-05
3.75878e-05
-6.27585e-05
-4.99142e-06
2.55414e-05
-5.11217e-05
2.26251e-05
-1.3483e-05
-4.80209e-05
-1.98236e-05
3.05497e-06
3.73248e-05
3.42681e-05
-1.23484e-05
-2.31676e-05
-0.000132199
-1.6694e-07
-7.60658e-06
5.12579e-05
-7.35279e-06
-7.3632e-05
5.0168e-06
-3.30424e-05
-1.99117e-06
5.00255e-05
-7.79761e-06
-2.33897e-05
-8.48016e-06
1.05449e-06
-1.92298e-05
7.13235e-05
-5.15234e-05
7.82229e-06
3.11626e-05
6.53439e-05
-4.67901e-05
-2.9064e-05
-1.14907e-05
-2.49565e-05
-9.34283e-05
-2.04821e-05
3.51589e-05
4.88632e-05
3.64078e-05
-1.64527e-05
3.77699e-05
6.1458e-05
-4.7524e-05
4.48452e-05
4.40086e-05
9.82301e-06
-5.10868e-05
1.23071e-05
2.34438e-05
7.04299e-05
4.9668e-05
-3.57146e-05
2.25287e-05
5.27385e-06
-2.51164e-05
4.80085e-05
3.40397e-05
2.11626e-05
-2.89197e-05
-7.34264e-05
2.16753e-05
3.48728e-05
1.4212e-06
-4.63354e-05
1.81724e-06
-1.65713e-05
5.22439e-05
1.92714e-05
-4.251e-05
-9.05949e-05
6.88445e-06
2.94282e-05
9.4329e-06
3.9076e-05
-4.01764e-05
2.79776e-05
-3.30703e-05
9.02752e-05
1.87061e-05
2.1936e-05
-2.38945e-05
3.89216e-05
7.9507e-05
-1.43016e-06
-1.07866e-05
-4.31226e-05
-5.63422e-05
3.65555e-05
5.69108e-06
-2.97659e-05
3.18503e-05
-3.75102e-05
-1.9769e-05
6.36957e-05
5.06412e-05
-4.80589e-05
-4.18772e-05
-9.31276e-06
-2.63555e-05
-1.33656e-05
5.09451e-05
7.41067e-05
-1.38808e-05
-5.52124e-05
-6.02388e-05
2.25471e-05
4.01649e-05
-3.56471e-05
4.6086e-05
6.04027e-05
1.0042e-05
-2.7285e-05
-6.8402e-05
1.03849e-05
-3.90664e-05
-6.67315e-05
1.89331e-05
-3.86646e-05
-7.26082e-05
1.55346e-05
3.4466e-05
-9.18214e-06
-2.52384e-05
3.49991e-05
6.71943e-05
-7.81415e-06
-2.34852e-05
1.9087e-05
-3.45567e-05
-3.24647e-06
3.17621e-05
-4.3362e-05
-4.44562e-05
-1.2916e-05
6.19072e-05
-1.54714e-05
-1.92421e-05
-9.33767e-07
1.07802e-05
-2.67862e-05
6.43281e-05
6.28643e-07
3.16111e-05
-3.45436e-05
-2.02106e-05
3.29814e-05
-8.92975e-06
-5.3377e-05
-6.58387e-05
-1.97742e-05
2.38302e-06
3.65477e-05
8.36793e-06
-1.87778e-06
1.4829e-05
-2.75739e-05
4.24774e-05
2.79525e-05
9.69106e-05
6.6583e-05
1.94263e-05
1.45673e-05
-1.36637e-05
5.90177e-05
5.77694e-05
-3.53305e-05
8.65562e-05
-1.88482e-05
-2.10216e-05
-5.39365e-05
1.12333e-05
-1.22989e-05
7.03161e-05
-1.07867e-05
6.14917e-06
5.77932e-05
3.47515e-05
-3.56395e-05
-5.85639e-06
4.38266e-05
2.99953e-05
1.48882e-05
3.0942e-06
-6.29975e-05
1.44148e-05
-9.34469e-05
4.10879e-05
-3.34159e-05
-7.29716e-05
6.78643e-06
-4.31375e-05
3.26063e-05
-5.40691e-05
-3.5189e-05
-7.38085e-06
-3.46784e-05
7.78167e-06
5.28593e-05
1.66988e-05
-1.61491e-06
7.61891e-05
-2.89571e-06
5.27896e-05
3.31e-05
2.69054e-05
3.2012e-05
-4.14016e-05
-7.91212e-05
6.70378e-06
-3.71059e-05
3.38303e-07
3.12879e-05
2.55893e-05
4.62426e-05
-7.34476e-06
3.85576e-05
-1.82483e-05
8.60402e-05
-3.51759e-05
-2.42109e-05
-2.44786e-05
3.96883e-05
3.96366e-05
-5.59632e-06
-1.59821e-05
5.26488e-05
-3.12827e-05
-9.51323e-06
1.32085e-05
3.03074e-05
4.01436e-05
-6.21303e-05
6.55802e-06
-4.02809e-05
7.68164e-05
-2.30575e-05
2.42656e-06
-2.36238e-05
-7.6571e-06
1.05519e-06
-7.58453e-05
1.89057e-05
4.24923e-05
2.7332e-06
-4.68807e-05
-0.000111356
2.32972e-05
1.92823e-05
1.66974e-06
4.11414e-05
-1.26263e-05
3.11492e-06
-2.15396e-05
-7.41893e-05
3.57797e-05
1.81671e-05
-4.43212e-05
1.38059e-05
2.49424e-05
-1.40066e-05
-5.45267e-05
-1.59675e-05
4.84833e-05
-4.49945e-06
-0.000139603
5.7974e-05
3.08063e-05
0.000100899
-3.72757e-05
3.8272e-05
1.96727e-05
-2.19455e-05
-3.16999e-05
-3.15025e-05
5.7979e-05
8.84749e-05
-9.06736e-06
-5.99887e-05
9.21835e-06
8.46398e-06
-1.81608e-08
-2.07849e-05
-3.90373e-05
0.000130274
-3.43214e-05
-4.70515e-05
5.37116e-05
-2.79641e-06
2.82249e-06
-3.79186e-05
-6.05413e-05
4.75424e-05
4.84358e-05
-1.75372e-05
3.7463e-05
-5.19102e-05
4.18175e-05
3.39493e-05
-6.99733e-05
2.73657e-05
3.88061e-05
1.67806e-05
-5.26784e-05
6.28689e-05
-2.19627e-05
-4.31017e-05
-7.40332e-06
-2.66786e-05
4.25467e-05
3.64962e-06
2.7573e-05
-4.73878e-05
-6.43649e-06
3.03099e-05
-2.263e-05
-8.19347e-05
-4.95822e-05
1.36236e-05
3.36367e-05
4.53531e-05
-3.78178e-05
6.72052e-05
-2.0206e-05
-6.23039e-05
4.74696e-05
4.62765e-05
1.24057e-05
3.82876e-05
2.15028e-05
5.87138e-05
-6.50003e-05
-4.25662e-05
-1.34121e-05
4.39063e-05
4.787e-05
-2.23208e-05
-6.05176e-05
1.98314e-06
-2.4375e-06
-3.00119e-05
1.48921e-05
2.92046e-05
7.28873e-05
7.06636e-05
-3.5825e-05
-0.000140627
2.58458e-05
1.20373e-06
-2.88252e-05
-4.69702e-05
5.72425e-05
3.12589e-05
1.7556e-05
-0.000107817
-1.58473e-05
1.13322e-05
3.99521e-05
3.28133e-05
-4.30106e-05
3.20361e-05
3.74881e-05
-3.91934e-05
2.83313e-05
3.71945e-05
-1.3714e-05
3.56366e-05
-5.4416e-05
8.30449e-05
3.0324e-05
-1.94274e-05
-2.67292e-05
6.84281e-05
4.12185e-05
-2.91599e-05
3.35344e-05
3.92137e-05
3.68367e-05
-3.48372e-05
-2.81517e-05
1.41673e-05
3.5295e-05
-7.15661e-05
-2.16162e-05
4.60051e-05
3.64993e-05
2.3186e-05
-3.12362e-05
-7.13485e-05
2.25481e-05
-3.52723e-05
7.69855e-05
-4.16434e-05
-1.37859e-05
7.45144e-05
-5.40675e-05
4.00422e-06
-1.77844e-05
-5.58048e-05
2.01229e-05
5.95977e-06
5.05822e-05
6.3116e-05
-6.58255e-05
8.14195e-05
-4.32238e-05
-2.44335e-05
2.67202e-05
4.3941e-06
9.56794e-06
7.65524e-06
4.39107e-06
-4.22166e-05
2.17025e-05
1.01281e-05
-1.56353e-05
-7.88145e-05
-2.79716e-05
-7.33102e-06
2.62829e-05
6.22869e-06
2.38395e-05
-8.04104e-06
5.26161e-05
3.00963e-05
-3.07952e-05
-8.68589e-05
1.14752e-05
3.87328e-05
1.11609e-05
-2.8562e-05
-9.1251e-06
-2.48151e-06
2.21181e-05
-3.23018e-06
2.53443e-05
2.25465e-05
3.20966e-05
-2.08741e-05
-3.063e-06
6.05499e-06
-3.4133e-06
3.49665e-05
-2.44869e-05
5.34735e-05
1.96628e-05
1.27889e-05
-1.15691e-05
2.92526e-05
2.87103e-06
3.39586e-05
-1.87163e-05
-2.8864e-06
-6.90415e-05
2.46685e-05
-5.03892e-06
-1.26831e-05
2.05981e-05
-2.63398e-05
-2.66219e-06
-3.02477e-05
-7.38938e-05
-1.16541e-05
0.000124286
-9.67178e-05
2.30565e-05
4.08881e-05
1.12082e-05
1.89696e-05
2.29748e-05
-6.50405e-05
-1.85567e-05
-3.58939e-05
9.88808e-06
-2.25087e-05
-0.00011462
5.06443e-05
-0.000120175
-5.2155e-05
0.000129995
-2.85547e-05
-3.29313e-05
1.3981e-05
-3.08815e-06
-4.58444e-06
-6.87176e-05
5.01284e-07
2.54065e-05
-3.06809e-05
-4.83701e-05
-2.09839e-05
3.77457e-05
3.99069e-05
1.09904e-05
-3.37753e-05
2.43068e-05
4.91918e-05
4.58604e-05
-7.13922e-05
-6.57426e-05
-4.48683e-05
5.1466e-05
2.45089e-06
-1.54704e-06
-6.96706e-05
3.42028e-07
-1.04241e-05
6.89388e-06
-2.29034e-05
-2.3552e-06
-3.06224e-05
3.27415e-05
-3.2268e-06
-1.03371e-05
-2.52562e-05
2.8462e-05
9.52237e-05
-3.02622e-05
3.21709e-05
4.43812e-05
-4.54083e-05
-0.000101102
-3.30771e-05
0.00011101
6.25451e-05
-5.28278e-05
-0.000107186
-1.18125e-05
6.85675e-05
3.46116e-05
-5.40467e-05
-5.21371e-05
4.75182e-05
-4.06376e-05
-0.000119436
6.12031e-05
-1.81569e-05
-3.1173e-05
0.000105493
-4.5473e-05
-9.29433e-05
-5.38453e-05
9.50485e-06
-5.54984e-05
1.67226e-05
4.28199e-06
-7.23698e-05
6.52415e-06
4.5925e-05
6.77758e-06
-2.06707e-06
5.32221e-05
2.83378e-05
-3.75985e-05
-4.85517e-05
0.000104193
-1.62809e-05
-5.72822e-06
-2.96998e-05
-2.67231e-06
-4.5812e-05
8.228e-06
-1.31114e-05
-4.38881e-05
-3.36707e-05
-5.49543e-05
4.80602e-05
-3.43899e-05
5.50937e-05
-3.26772e-05
-2.49946e-05
-9.60915e-06
3.26961e-05
-4.34379e-05
8.2174e-05
3.99037e-06
1.01068e-05
-2.64158e-05
-1.68476e-06
5.18311e-05
-5.0524e-05
7.6534e-05
-2.69974e-05
-2.84485e-05
5.25312e-06
1.91289e-05
5.75265e-05
-1.55075e-05
1.41477e-05
1.54795e-05
9.67544e-05
-2.60589e-05
2.79746e-06
-6.86485e-05
-4.36348e-06
5.35534e-06
-6.2352e-07
-1.12273e-05
2.76121e-05
-7.06455e-05
2.38854e-05
3.64641e-05
-5.86058e-06
-1.47321e-05
5.8536e-05
-1.46346e-06
5.05825e-07
-8.36421e-06
-6.68819e-05
-7.45815e-06
-5.66776e-05
5.49137e-05
-1.55679e-05
-6.51167e-05
1.93967e-05
-2.50092e-05
1.49551e-05
4.44497e-05
-8.87795e-06
-5.64917e-05
-7.07046e-05
-8.34197e-06
-2.96301e-05
-2.15264e-06
-1.83217e-05
-1.89303e-06
-0.000102778
8.74803e-06
3.24822e-05
3.07962e-05
-0.000103662
-3.61562e-05
2.02424e-05
8.3912e-05
4.75219e-06
-1.31454e-05
3.19695e-05
7.14441e-07
-3.71363e-05
-7.51375e-05
-6.92115e-05
-2.21177e-06
-7.09709e-05
1.36718e-06
-4.37517e-05
5.21006e-05
-3.20331e-05
-2.11226e-05
9.38203e-06
-1.06078e-06
4.85044e-06
-2.59295e-05
5.72979e-05
-2.03843e-05
4.02204e-05
1.71227e-05
-4.36113e-05
4.79119e-06
-4.09898e-05
-3.49013e-07
2.30947e-05
-3.31627e-05
1.34483e-05
1.23589e-05
-2.61035e-05
-4.63811e-05
1.17684e-05
-4.40199e-05
0.000100773
4.16172e-05
5.95762e-05
5.72682e-06
3.63495e-06
3.72173e-05
-2.83867e-05
-2.65329e-05
-3.87037e-05
-3.32441e-05
-2.94496e-06
-4.83368e-06
-7.42389e-05
-9.21186e-05
-4.12931e-05
9.36039e-05
1.79681e-05
2.46142e-05
5.07896e-05
-3.90917e-05
-4.86936e-05
-6.07771e-05
2.91874e-05
-7.01528e-05
2.39772e-05
5.71006e-05
1.43821e-05
-8.54447e-05
6.48926e-05
5.64125e-06
1.1501e-05
-0.000120717
5.33744e-05
7.36078e-05
5.39166e-06
1.38734e-05
1.18415e-05
-9.65106e-06
3.66954e-05
-3.03437e-05
4.71817e-05
6.17243e-05
-4.68153e-06
-4.04328e-05
-2.984e-05
4.8338e-06
-1.19163e-06
4.36947e-05
-1.84926e-06
-1.13775e-05
-1.70618e-05
7.82477e-05
-4.5835e-06
1.7914e-05
-3.62857e-05
-7.78636e-05
7.38351e-05
-9.19306e-05
-5.20796e-06
2.09287e-05
2.30642e-06
7.05889e-05
3.83818e-05
7.42124e-06
5.50139e-05
-1.0145e-05
4.60939e-05
-1.68376e-05
-5.88751e-05
-4.91895e-05
5.14211e-05
5.45885e-05
-1.98535e-05
5.8101e-05
3.02001e-05
1.38803e-05
2.24963e-05
6.25571e-05
6.9018e-06
-8.80084e-05
-1.34252e-05
-5.00726e-06
4.87005e-05
5.99247e-05
6.30914e-05
1.42679e-06
2.14428e-05
-2.6638e-05
-9.90415e-06
-6.22044e-05
-1.60282e-05
3.2595e-05
-3.8536e-05
-1.90416e-05
5.31541e-05
-2.28167e-05
1.54099e-05
-4.23556e-05
-5.64614e-07
-5.11482e-05
-1.07907e-05
-0.000114607
2.06346e-05
1.91705e-05
7.28541e-05
2.73266e-05
-4.94908e-05
5.05783e-05
5.27872e-05
6.41992e-05
-7.99005e-06
4.43968e-05
-4.86516e-05
-2.58872e-05
-3.12887e-05
9.76647e-05
-4.46027e-05
-4.87096e-05
2.7045e-05
-5.04585e-05
1.36555e-05
-9.01837e-05
-0.000131355
6.04797e-05
5.67489e-05
-1.70093e-05
2.47734e-05
-9.10857e-06
5.16698e-05
-8.06586e-05
3.82909e-05
3.78349e-05
1.5907e-05
-7.97585e-06
-6.65523e-06
3.57418e-05
3.13773e-05
-9.32617e-05
-4.72955e-05
-9.38084e-05
-4.97691e-05
6.84749e-05
-3.54394e-05
9.14535e-06
-3.66227e-05
3.87209e-05
1.69342e-05
4.47612e-05
-5.40483e-05
2.94942e-05
6.61318e-05
1.22406e-05
-6.64287e-05
1.13412e-06
1.48172e-05
-1.36935e-05
6.08946e-05
-9.08971e-07
7.89305e-05
9.09669e-06
5.26159e-05
-9.66362e-05
3.41134e-05
6.60541e-06
-1.27822e-05
-4.43453e-05
-2.06705e-05
3.15043e-06
-9.30973e-07
-6.30612e-05
-0.000100799
-4.15869e-05
-9.15083e-05
-4.81864e-05
5.62922e-05
-1.52453e-05
-5.22903e-05
-2.41196e-05
-1.0829e-05
-4.57693e-05
-4.23094e-05
1.19057e-05
2.83612e-05
-1.41363e-05
-5.28248e-05
-6.13478e-05
1.77324e-05
1.07323e-05
-2.0828e-05
5.96312e-05
1.79093e-06
2.51201e-05
-2.36351e-05
5.88675e-05
3.18963e-05
4.76107e-05
-7.31893e-05
7.2247e-05
-0.000100922
-6.24056e-06
6.49312e-05
8.48947e-06
3.2307e-05
-3.30654e-06
-4.32206e-05
2.37802e-06
1.9997e-05
-1.27289e-05
9.59425e-06
3.61394e-05
2.75432e-05
6.9214e-05
-2.72423e-06
-6.32238e-05
-6.1465e-06
-7.61088e-06
-1.0212e-05
4.45032e-05
5.20085e-06
2.67311e-05
-6.62985e-06
-4.79841e-06
-2.94803e-05
1.43549e-05
5.68957e-06
6.79196e-05
9.01218e-06
3.43913e-05
1.84252e-05
1.29042e-05
-4.46527e-05
3.45937e-05
3.3655e-05
1.93878e-06
-1.88093e-05
4.46873e-05
-5.23893e-05
6.75358e-05
7.7465e-05
6.37164e-06
8.13853e-05
-3.18105e-05
2.20668e-05
-1.73564e-05
-2.87807e-05
-6.8658e-05
1.19233e-05
2.4791e-05
1.23708e-05
-3.48677e-05
2.16777e-05
-2.20754e-05
-3.52517e-06
1.23349e-05
1.70933e-06
2.97123e-05
-6.88565e-05
-1.33738e-05
9.18963e-05
-3.43514e-05
1.47284e-05
-1.23633e-05
4.94565e-05
2.42067e-05
-4.44686e-05
5.05935e-05
0.000106778
9.66927e-05
6.52506e-05
8.89995e-07
-7.20704e-06
-1.14562e-05
6.66908e-05
-5.44789e-06
4.01797e-05
-2.33974e-05
4.17562e-05
-3.41267e-05
-2.13977e-05
6.28154e-06
-2.62642e-05
3.5821e-05
-8.93135e-05
4.69466e-05
-3.57558e-05
3.30249e-05
2.34644e-05
-9.97118e-05
2.21338e-05
3.57018e-05
-1.87461e-05
2.13264e-05
-6.78237e-05
2.71616e-05
-5.16976e-05
5.68145e-05
4.88441e-05
-1.74807e-05
3.80413e-05
4.54169e-05
1.1788e-05
-8.37981e-06
2.07492e-05
-2.05642e-05
5.28258e-05
-7.57063e-05
-4.26271e-05
-7.67235e-06
2.04981e-05
-1.54353e-05
-3.12326e-05
1.17396e-05
6.21651e-05
4.88078e-05
4.33624e-06
-0.000127571
-5.0224e-05
-6.86675e-05
-6.60997e-05
3.09137e-05
7.61509e-05
-7.01355e-05
-7.02962e-06
9.28505e-06
4.82406e-05
3.83938e-06
8.47271e-06
-6.75758e-05
-1.85831e-05
1.21739e-05
-8.66794e-06
-3.19523e-05
-1.42832e-05
3.18384e-06
7.33044e-06
1.82409e-05
2.56513e-05
-6.78835e-05
-4.71447e-06
3.49286e-05
-5.0533e-05
1.07936e-05
-1.50143e-05
-1.63049e-05
-2.95392e-05
9.53893e-05
2.63909e-05
-1.76688e-05
-2.15019e-05
-1.27994e-05
8.03324e-06
-1.35809e-05
2.63915e-05
-7.18527e-06
-1.90844e-05
2.17282e-05
5.39327e-05
-9.03433e-05
5.79042e-05
-1.44774e-05
-1.46053e-05
-3.83229e-05
-4.54382e-05
2.61617e-05
5.74824e-05
2.07165e-05
1.80586e-05
2.6194e-05
-7.22171e-06
-2.65968e-05
2.38704e-05
-3.81796e-05
-3.29996e-05
2.86616e-05
4.19596e-06
5.34139e-05
-1.29021e-05
-4.54567e-06
9.10492e-05
1.63324e-05
1.69141e-05
-4.63269e-05
3.5574e-05
-3.91713e-05
2.29456e-05
1.72224e-05
3.0864e-06
6.80584e-05
6.72808e-05
-1.70235e-05
-7.54651e-06
4.55859e-05
-1.23874e-05
-6.61192e-06
0.000122596
3.26282e-05
1.82124e-05
2.49491e-05
-5.22538e-05
-2.22388e-05
-5.70166e-05
1.30432e-06
7.69005e-06
2.41781e-05
1.07713e-05
-5.20679e-05
1.767e-05
6.44933e-05
-6.11884e-05
5.4407e-05
-4.49319e-05
-7.05207e-05
6.23066e-06
3.27922e-05
4.70878e-05
1.32783e-06
1.32959e-05
-7.786e-05
-2.81829e-05
-6.89272e-06
0.000112601
3.68481e-05
-3.34256e-05
4.8563e-05
3.18352e-05
1.14891e-05
6.94902e-05
0.000133271
-7.38591e-05
-4.20365e-05
-1.68969e-05
2.04117e-05
8.13312e-06
-1.9554e-05
3.47552e-05
5.05911e-05
-6.30394e-05
-4.22691e-05
1.79629e-05
5.70347e-05
-6.66827e-07
2.83978e-05
-3.478e-05
-8.23165e-05
-3.16931e-05
-5.51026e-05
-1.69483e-05
6.43999e-05
-5.57775e-05
5.25214e-05
-0.00011234
-7.1065e-05
-1.52239e-05
-1.60272e-05
-3.59304e-05
5.28325e-05
4.40277e-05
-4.75463e-06
-6.05783e-05
-2.03254e-05
1.72124e-05
2.4091e-05
-2.15007e-05
-3.80278e-05
1.84207e-05
-5.2297e-05
-1.48042e-05
-9.04261e-05
-1.86132e-05
-1.40985e-05
0.000121308
-2.547e-05
5.25205e-05
3.79472e-05
3.1194e-05
-3.85309e-05
-5.1026e-06
-4.49662e-05
2.62947e-05
1.12433e-05
-1.86055e-05
1.74429e-05
-3.76214e-05
8.71078e-06
-3.17954e-05
7.14657e-05
-7.47014e-05
0.000101809
5.19648e-05
3.18056e-05
1.94155e-05
4.63662e-05
-3.00468e-06
1.62402e-05
7.99994e-05
3.67558e-06
-1.37991e-05
-5.21089e-05
-5.62186e-05
2.68223e-05
-3.78017e-05
-4.78229e-05
2.88633e-05
-2.68995e-05
-1.16546e-05
-5.02804e-05
3.10766e-05
-2.00593e-05
3.8109e-05
-8.7174e-05
-4.69047e-05
1.67191e-05
4.92437e-05
9.12719e-06
1.42597e-06
-6.69416e-05
-7.27304e-05
-1.43615e-05
-9.74454e-06
-1.56977e-05
2.6738e-05
-9.21221e-05
-5.88645e-05
-1.25875e-05
5.10602e-05
-8.97491e-05
7.86011e-05
1.30897e-05
1.51685e-05
-0.000114672
-4.1971e-05
1.06477e-05
8.84156e-05
-6.7529e-06
-6.93055e-06
1.08081e-05
-9.152e-05
-1.49589e-05
1.07789e-05
5.18088e-05
-3.28288e-05
4.25936e-05
9.43104e-06
7.85571e-07
4.03603e-05
-3.8353e-06
2.66725e-05
-2.21874e-05
6.10831e-07
2.16439e-06
1.83084e-05
-2.01636e-05
-7.52347e-05
-8.20153e-05
-4.08834e-05
3.06887e-05
3.11448e-05
-1.76036e-05
-1.14895e-05
3.87502e-05
9.27434e-06
1.17534e-05
-4.44879e-05
-5.27485e-05
-4.26524e-05
9.60717e-05
-3.91067e-05
-6.17566e-05
-4.51253e-05
4.72006e-06
-4.15781e-05
-1.74751e-06
2.57661e-05
4.81146e-05
-3.50769e-05
2.89141e-05
3.42638e-05
2.19487e-05
-2.03146e-05
-2.84292e-05
2.95844e-05
6.23257e-05
1.8149e-05
-1.77093e-05
-4.22897e-05
-3.51784e-06
6.32224e-05
3.54671e-06
7.63219e-06
-5.29375e-06
1.01698e-05
2.74981e-05
2.9136e-05
-2.60756e-05
-5.97403e-05
8.67877e-05
3.29313e-05
-1.45724e-05
-1.42369e-05
5.72903e-05
3.84252e-06
9.81893e-05
0.000121367
-2.85935e-05
2.49981e-05
7.87212e-06
-1.86712e-05
-1.70151e-05
-7.32373e-05
0.00011208
-1.25972e-05
-6.0178e-05
7.86257e-06
3.08839e-05
9.78366e-06
7.84022e-06
1.71359e-05
4.83124e-08
-2.67229e-05
-2.56811e-05
-4.1337e-05
-4.55834e-05
-1.76238e-05
-7.76537e-06
-4.82692e-05
7.13975e-05
1.64241e-05
3.01737e-05
-3.19593e-05
1.39844e-05
-1.39403e-05
-1.55889e-05
4.47687e-06
-1.65853e-05
8.27655e-05
5.56016e-05
5.67292e-06
3.54117e-05
2.86265e-06
-1.63052e-05
2.07493e-05
9.63209e-06
-1.45012e-05
-4.88879e-05
-4.07482e-05
-9.69204e-06
4.12578e-05
-2.15801e-05
-3.41528e-05
5.64965e-05
-1.37314e-05
-5.04197e-05
3.84744e-05
-2.33627e-05
-1.19628e-06
-5.9447e-05
5.95232e-06
6.40077e-05
-7.39719e-05
-2.23712e-05
-4.28909e-06
-7.43163e-05
-1.58097e-05
5.60067e-05
-2.41024e-05
5.20147e-05
4.58726e-05
-3.16428e-05
0.000122277
2.89967e-05
1.20706e-05
-2.74089e-05
-3.44681e-05
-3.20203e-05
5.98463e-05
4.27902e-05
-2.54267e-05
-1.6286e-05
4.25265e-05
4.55984e-05
-7.0805e-05
-4.5384e-05
-1.75918e-05
6.00135e-05
3.70808e-05
4.36974e-05
-7.64546e-06
2.17556e-05
1.48434e-05
1.47811e-05
3.49523e-05
1.44989e-05
-7.17355e-05
5.90795e-05
3.93533e-05
-1.62122e-05
4.74529e-05
-1.84558e-05
-3.84232e-05
8.4609e-05
5.78985e-05
5.29928e-05
-2.82939e-05
-1.40261e-05
-3.3821e-06
6.56872e-05
1.70164e-05
1.81666e-05
-1.45179e-05
-3.22156e-05
8.30134e-06
5.70647e-05
3.72088e-05
6.89623e-05
3.92867e-05
3.0786e-05
-1.59348e-05
4.17504e-05
8.47306e-06
-3.21823e-05
-1.0755e-05
-1.45925e-05
5.39322e-05
1.21887e-05
2.1124e-05
-2.64747e-05
1.12989e-05
-2.39084e-05
-1.44513e-05
1.09988e-05
-7.73533e-06
4.69002e-06
1.68589e-05
6.6706e-05
1.57992e-05
-0.000107579
-8.2499e-05
6.52345e-06
-5.85074e-05
5.17318e-05
1.84858e-05
1.66779e-05
-7.07679e-05
5.68479e-06
-1.86226e-05
-4.33438e-05
5.83277e-05
-4.15358e-05
-7.76742e-05
-1.33211e-05
-3.74748e-05
-1.10024e-06
5.06308e-05
3.43448e-05
5.21399e-05
2.95318e-05
4.71442e-05
-2.02374e-05
0.000134813
5.51662e-05
-3.82707e-05
-1.12215e-05
0.000111733
1.12876e-06
-1.38336e-05
-2.07325e-05
-1.05341e-05
5.75138e-06
2.51088e-05
-6.47182e-05
1.22236e-06
0.00011825
2.02317e-05
-6.96788e-05
-8.34583e-05
9.06894e-05
4.29547e-05
-6.09942e-05
-2.33622e-06
4.52448e-06
-2.48619e-05
-7.49838e-05
-6.30168e-06
3.39792e-05
6.28867e-05
-2.65916e-06
-2.97546e-05
-6.6773e-05
-1.08312e-05
7.42287e-06
3.03179e-05
-1.26917e-05
1.26481e-05
-3.24744e-05
-1.54037e-05
4.65962e-05
-6.06757e-07
-7.33234e-05
-3.61176e-05
3.19348e-05
5.07121e-05
5.52053e-05
-3.86604e-05
-2.71015e-05
-1.73179e-06
4.00437e-05
-1.28831e-05
1.15238e-05
2.75387e-05
1.50998e-05
2.0236e-05
3.27816e-05
-0.000103584
-2.37203e-05
5.62988e-05
-3.56052e-05
-8.56412e-05
0.000101617
-2.90702e-05
2.15787e-05
-5.19507e-05
6.29341e-06
-5.9559e-05
3.80189e-06
-4.0116e-05
2.21786e-05
-9.73733e-06
6.35823e-05
-2.76124e-05
-2.54395e-05
9.0673e-05
-5.55884e-05
-3.51439e-05
1.47803e-05
-2.30938e-05
3.46852e-05
-4.10139e-05
-1.09316e-05
2.98409e-05
3.45651e-05
-4.78459e-05
-5.78742e-05
-3.72991e-05
3.5862e-05
-1.02355e-05
-1.76756e-05
3.83471e-05
4.55091e-06
-3.07257e-05
-6.31746e-05
6.19097e-06
-5.68886e-05
0.00012035
-0.000117729
-6.80868e-05
1.01869e-05
-1.02153e-05
2.82165e-05
-1.96019e-05
-6.25628e-06
3.50752e-05
9.93174e-06
-5.9648e-05
5.40572e-05
-2.9758e-05
-7.25966e-07
-9.39064e-06
-2.64805e-05
5.89009e-05
9.35846e-05
7.95012e-05
-1.68921e-05
-6.82934e-05
-7.77041e-05
4.75623e-05
-1.31747e-06
1.17448e-05
5.16311e-05
-6.31507e-05
2.21431e-05
3.45717e-05
-3.8962e-05
4.9273e-05
9.85316e-06
-2.73689e-05
-7.18012e-05
-2.207e-06
9.41311e-06
5.68592e-05
-2.01397e-05
-8.62207e-06
7.08946e-06
9.57632e-07
-2.91979e-05
-3.67723e-05
9.87202e-07
-7.08364e-06
-7.77072e-05
4.07128e-05
2.28044e-05
-2.33529e-05
-2.82732e-05
6.35581e-06
-3.10612e-05
-2.37785e-05
5.8766e-05
3.77756e-05
-8.88547e-05
1.88741e-05
2.82156e-05
2.42069e-05
-1.97263e-05
3.13717e-05
2.67726e-05
-2.78914e-05
-1.14409e-05
4.39795e-05
-1.84723e-05
6.28969e-06
-9.41579e-06
3.67077e-05
-1.65384e-05
-2.21909e-05
-3.26345e-05
2.11536e-05
-9.05286e-05
-2.25273e-05
7.17794e-06
-1.67806e-05
-5.1295e-05
-4.15267e-05
3.02576e-05
1.87579e-05
1.34525e-05
6.79973e-05
0.000103678
-2.68697e-05
-5.6222e-05
-7.36816e-06
-8.72952e-06
-8.22055e-06
-0.000119192
3.07654e-05
9.97077e-05
7.93551e-05
2.35238e-05
2.8949e-06
3.23566e-05
6.61914e-06
-1.27404e-05
-1.12371e-05
3.50177e-06
6.0895e-05
-6.73463e-06
5.99329e-05
-9.10857e-06
-4.93439e-05
-1.25008e-05
-1.79211e-05
3.41781e-05
-3.37977e-05
7.39528e-06
5.94538e-05
0.000102923
1.58974e-05
2.07429e-06
6.60846e-05
-5.49529e-05
-6.42203e-05
4.83601e-06
5.8605e-05
-3.5363e-05
-0.000113618
-3.21871e-05
8.25222e-06
3.03726e-05
4.09468e-06
1.25879e-05
-2.5791e-05
4.03018e-06
-1.99423e-05
-0.000115458
-8.30321e-06
2.34322e-05
1.67678e-05
-9.90008e-06
-1.77942e-05
3.41064e-05
5.38377e-05
-8.89762e-07
-3.26867e-05
-1.4483e-05
1.08395e-05
2.86297e-05
1.41957e-05
-1.13212e-05
4.36335e-05
-9.70042e-06
4.36602e-05
-6.25965e-06
-6.496e-05
8.334e-05
7.37328e-06
-2.33594e-05
-5.29968e-05
8.21904e-06
-7.67082e-05
-5.47341e-05
1.69991e-05
-2.35282e-05
6.93041e-05
-5.89243e-05
-1.5896e-05
-3.79723e-06
-4.36552e-05
1.74972e-06
6.90925e-06
-1.56343e-05
-1.26811e-05
-6.31367e-06
-2.87471e-05
6.35848e-05
-1.27363e-05
2.98871e-05
-1.94587e-05
0.000106661
-6.87314e-05
2.64263e-06
7.97834e-05
-7.28982e-05
-2.11627e-05
-1.82854e-06
-5.65476e-06
-3.07189e-05
-1.66823e-07
6.13104e-05
-4.53604e-05
-3.93717e-06
2.74233e-05
5.10014e-05
6.30156e-06
2.15226e-05
-5.93151e-05
-4.52383e-05
-4.56918e-05
-4.3974e-05
-2.38916e-05
-5.03428e-05
-2.24269e-05
-6.28908e-05
1.1194e-05
0.000117078
1.08841e-05
1.60362e-06
7.11577e-06
-1.24834e-05
-9.79604e-05
1.17272e-05
-2.43349e-05
-6.52871e-05
-4.5734e-05
9.77498e-05
-2.84509e-05
2.46851e-05
2.89715e-05
-3.39511e-05
9.19257e-05
-5.06385e-05
-3.13995e-05
4.1828e-07
2.26258e-05
5.23941e-05
-4.63512e-05
3.01981e-06
-7.2587e-05
3.62425e-05
4.53801e-05
5.1028e-05
4.96127e-05
1.14613e-05
6.31437e-06
1.38569e-05
1.41433e-06
1.35629e-05
-5.94299e-05
-5.26094e-05
-3.14445e-05
3.68992e-05
-1.13063e-06
4.39351e-06
1.65978e-05
1.01096e-05
-4.56732e-05
-5.6707e-05
-2.16054e-05
3.75358e-06
3.02104e-05
2.47178e-05
-3.70555e-05
-4.68161e-05
-8.0327e-05
-3.89204e-05
8.46449e-05
4.35202e-05
1.98982e-05
-8.17562e-06
-6.95721e-06
-5.38758e-05
3.58438e-05
-6.18511e-05
7.90429e-05
-1.59476e-05
-3.99173e-05
-6.26178e-05
3.51215e-05
5.15333e-05
1.97068e-06
-3.47069e-06
-9.94909e-06
5.45724e-05
-4.35944e-05
-3.20036e-05
3.5851e-05
-2.33699e-05
-7.19354e-06
3.16268e-05
-2.36788e-05
4.79085e-05
6.11598e-05
-1.50187e-05
5.83363e-05
-1.60108e-05
-5.55507e-05
-4.11179e-05
3.92953e-05
8.73664e-05
-9.01858e-06
2.39062e-05
5.31231e-05
-2.11794e-06
3.75925e-05
-6.11139e-05
-5.37818e-05
4.75651e-05
-2.97425e-05
-7.41598e-05
-1.30137e-05
3.82855e-06
-4.95904e-05
-1.00627e-05
1.48062e-05
3.36731e-06
-4.77559e-05
-3.26615e-05
4.77931e-06
4.40958e-05
4.04306e-05
-4.6578e-05
-4.65791e-05
9.95374e-06
6.581e-05
1.7775e-05
-1.76013e-05
-0.000102062
4.74713e-05
-2.01666e-05
-7.77573e-06
-8.79925e-06
4.50332e-05
-5.59154e-06
-5.70056e-05
-1.93107e-05
-3.39668e-05
4.75907e-05
2.16514e-05
-2.22094e-05
-2.47781e-05
-2.54149e-05
-5.8905e-06
-1.15657e-05
-4.13182e-05
-4.02365e-05
1.20641e-06
-4.48262e-05
2.0425e-05
3.3807e-06
-2.82915e-05
3.01638e-05
9.34885e-06
-6.71307e-05
-4.05741e-05
7.09333e-05
-3.39558e-05
-2.67514e-05
2.17737e-05
1.56356e-05
1.44396e-05
-8.90228e-06
-1.19938e-05
1.44322e-05
8.70281e-05
-9.6974e-07
1.24228e-05
-5.59276e-05
-1.92774e-05
3.90811e-05
3.06999e-06
-4.055e-05
7.56618e-06
6.72844e-05
3.9499e-05
-7.47537e-05
-3.48644e-05
2.46882e-05
-5.16152e-05
3.76708e-06
-4.08549e-05
-1.83191e-05
8.32831e-05
-3.53503e-05
-3.5636e-05
-9.10205e-06
-2.37031e-05
-7.61581e-05
-4.31739e-05
-3.44523e-05
3.03319e-05
-5.93201e-05
-4.43427e-05
-1.38478e-05
2.80141e-05
4.43449e-05
7.11298e-06
-4.18629e-07
-3.37957e-05
5.63171e-05
4.62114e-05
-7.51625e-05
0.000106831
-4.85465e-05
-1.38165e-05
-8.40868e-07
-1.47609e-05
-6.57003e-05