# vtk DataFile Version 1.0
Net Charge Density
ASCII
DATASET STRUCTURED_POINTS
DIMENSIONS 256 128 1
ORIGIN 0 0 0
SPACING 0.15625 0.15625 1
POINT_DATA 32768
SCALARS rhonet float
LOOKUP_TABLE default
-3.89607e-06
-9.51275e-05
0.000144792
9.63216e-05
3.56843e-05
0.000120451
-0.000118445
9.18577e-05
0.000154216
2.28996e-05
-3.75606e-05
0.000108726
0.000103821
7.94458e-05
0.000109346
4.99605e-05
8.77434e-05
0.000140236
4.05879e-05
-6.79102e-05
-6.40727e-06
0.000141859
0.000144767
4.77822e-05
3.72677e-05
2.07426e-05
7.7422e-05
9.0589e-05
-1.35218e-05
-7.2743e-05
5.23023e-05
3.97237e-05
4.3669e-05
6.90081e-05
1.24417e-05
0.000171713
1.68072e-05
7.28727e-05
7.7358e-05
-5.53066e-06
2.29321e-05
6.8323e-06
0.000136404
9.39816e-05
2.09387e-05
1.8683e-05
-3.16134e-05
6.95549e-05
0.000116214
7.88725e-05
-1.20078e-05
2.49782e-05
8.34425e-05
0.000148995
3.55949e-05
1.75035e-05
0.000151011
-5.17472e-05
5.67792e-06
7.16954e-05
5.02797e-05
6.06023e-05
7.16792e-06
8.01802e-05
8.22489e-05
-8.03831e-05
4.41817e-05
0.000136175
4.09957e-05
4.82835e-05
7.92337e-05
3.67109e-05
-2.69163e-05
4.96678e-05
-1.15018e-07
5.11555e-05
4.20857e-05
-3.83083e-05
9.21623e-05
0.000106615
8.71844e-05
2.54083e-05
7.49613e-05
0.000101106
4.54682e-05
-4.48024e-06
-1.66912e-05
6.70487e-05
0.000119669
-2.34875e-05
9.00029e-05
-1.47952e-05
-3.90529e-05
-6.21448e-06
-8.99176e-05
5.22722e-05
0.000157961
2.40979e-05
9.16886e-05
-2.49445e-05
0.000157723
9.09193e-05
-3.16917e-06
9.47256e-05
3.90385e-05
0.000130971
-2.58209e-07
-6.85498e-05
2.66265e-06
7.39996e-05
0.00013342
5.79277e-05
2.02988e-05
3.31157e-05
8.04211e-05
4.36592e-05
1.22658e-05
7.49689e-05
5.096e-05
4.32278e-05
-3.98804e-05
-3.45639e-05
4.04448e-05
2.44898e-05
0.00011572
6.60871e-05
1.82551e-05
8.13092e-05
1.99644e-05
-1.88105e-05
0.000119796
9.26163e-05
-2.24425e-06
3.77487e-05
2.03251e-05
6.79702e-06
4.46092e-05
-3.1916e-05
4.68969e-05
-1.15024e-05
-4.9841e-05
2.32959e-05
2.09626e-05
0.000160761
9.88225e-05
2.06381e-06
0.000137836
1.15244e-05
-3.11239e-05
0.000132418
1.78273e-05
2.9132e-05
0.000108428
-8.34523e-06
3.45047e-05
4.32305e-05
5.74661e-06
3.42712e-05
-5.27641e-06
1.75422e-05
7.6778e-05
2.50086e-05
0.000112709
-2.20693e-05
3.25855e-05
2.5523e-05
5.8462e-05
-6.12723e-05
0.000105448
0.000137295
2.50293e-05
4.32236e-05
7.45823e-05
0.000111579
-2.02679e-05
-8.13371e-06
8.7293e-05
-8.23223e-05
1.15578e-05
3.31807e-05
8.87692e-05
-7.06e-05
-3.1811e-05
5.65359e-06
1.0499e-05
7.98535e-05
4.14199e-05
7.20919e-05
0.000102554
7.46854e-05
2.48842e-05
0.000198125
8.16128e-05
-6.56992e-05
6.24198e-05
0.000201229
4.75222e-05
8.32757e-05
7.86673e-05
-1.63087e-05
5.95987e-05
0.000149169
4.39013e-05
3.8336e-05
-1.00757e-05
6.97707e-05
-5.98882e-05
5.34233e-05
6.86805e-05
8.57906e-05
6.81018e-05
0.000137439
0.000106096
-2.4052e-05
0.000111081
-0.00013128
0.000102691
9.90947e-05
-5.28728e-05
-3.79211e-05
8.69748e-05
0.000114877
0.000176992
3.40521e-05
7.95297e-05
5.67448e-05
-3.6914e-05
-1.514e-05
8.69033e-05
6.86065e-05
6.2281e-06
4.1654e-05
2.36375e-05
2.60691e-05
0.000121308
-3.55701e-05
-2.05768e-05
2.75013e-05
5.94512e-05
8.97935e-06
1.84994e-05
8.6694e-05
-5.82668e-05
-3.06871e-07
2.65902e-05
-1.44095e-05
-2.21957e-05
-3.95465e-05
0.000128655
-4.29596e-06
2.10481e-05
-3.85131e-05
0.000102294
2.14378e-05
2.4053e-05
4.18611e-05
-0.0001049
2.47045e-05
-6.30284e-05
-2.51192e-05
-2.38869e-05
5.12262e-05
-2.60446e-05
-7.57638e-05
4.98932e-05
-6.6046e-05
-4.29002e-05
2.33415e-05
-5.99088e-05
-8.02733e-05
3.00235e-06
-4.24262e-05
4.66278e-06
1.08916e-05
-2.15754e-05
-4.06045e-06
-5.8208e-05
-6.74938e-05
-0.000106138
-1.79199e-05
-2.00456e-05
-5.72719e-05
-2.52769e-05
7.72998e-06
-3.07414e-05
-8.53866e-05
-3.53889e-05
-8.36083e-06
2.74418e-05
-7.95682e-05
-6.67479e-05
2.31337e-05
-0.000103178
-3.37884e-05
1.98338e-05
-8.20331e-05
-5.15864e-05
-4.38412e-05
8.67259e-06
3.55998e-05
-2.47124e-05
4.87466e-06
-0.000112385
-3.15171e-05
3.88795e-05
-3.39416e-05
-6.56135e-05
-4.11932e-05
-3.17378e-05
2.98229e-05
-2.85321e-05
-3.54564e-05
-2.34866e-05
-0.00011611
1.48102e-05
-3.37934e-05
4.56307e-05
-5.12686e-05
-5.72854e-05
-3.73459e-05
-3.01477e-05
-6.05664e-05
-1.00289e-05
-7.9634e-05
-0.000109192
1.21044e-05
-4.39818e-05
9.01753e-06
-1.8436e-05
1.72423e-05
-5.13538e-05
-1.04345e-05
4.76094e-05
-2.54939e-05
5.74086e-05
2.16067e-07
-3.24124e-05
-5.04449e-05
-8.22558e-05
2.84824e-05
2.44655e-05
-6.16949e-05
-0.000158637
-4.16981e-05
-6.57747e-08
-1.69136e-05
8.77399e-06
5.33126e-05
3.1559e-06
-1.07943e-05
2.4714e-05
-5.96559e-06
3.43234e-05
-2.73112e-05
-6.84708e-06
-1.89489e-06
-4.36438e-05
-0.000106617
-3.96518e-05
-2.96772e-05
-3.556e-05
1.64222e-05
-5.91243e-05
-4.27186e-05
-1.06695e-06
-5.99981e-06
5.43523e-05
-3.54238e-05
-7.13791e-05
-7.13192e-05
4.017e-05
1.15477e-05
-5.23513e-05
-1.11548e-05
9.64559e-06
3.18991e-05
-8.57754e-05
1.39619e-05
-6.13793e-05
-7.7415e-06
-3.48635e-05
-1.67098e-05
-4.55657e-05
-6.96025e-05
1.7025e-05
-4.88103e-05
-2.07969e-05
1.5981e-05
-1.05534e-05
-2.35446e-05
-1.24412e-05
-3.31041e-05
-4.60115e-05
-1.33583e-05
-4.22456e-05
-8.32346e-06
-5.94476e-05
-7.82578e-05
8.69681e-06
-2.01946e-06
-8.38253e-05
1.05486e-05
-3.22353e-05
-4.36765e-05
-0.000117681
-8.72556e-06
-3.99578e-05
-3.83074e-05
-7.16748e-05
9.3705e-06
3.00057e-05
-1.70409e-05
-2.39987e-05
-1.85578e-06
-5.11224e-05
-2.02565e-05
-8.13482e-05
-6.40943e-05
3.62428e-05
-8.02706e-05
-7.56327e-06
2.37459e-05
2.21164e-05
-5.27813e-05
-2.42516e-06
3.60701e-05
-9.46565e-05
1.02377e-05
-2.21475e-05
3.9703e-05
-4.13511e-05
-2.5548e-05
-5.70074e-06
3.04059e-05
-6.90699e-05
-4.77677e-05
3.67503e-05
-4.79701e-06
2.05892e-06
-4.86567e-05
-0.000107547
-6.60247e-05
-2.6601e-05
-2.24791e-05
-9.32999e-06
-1.88573e-05
-0.00010145
6.32228e-06
3.69591e-05
4.61028e-06
-1.08493e-05
-2.36548e-05
-8.50842e-05
-3.90908e-05
4.81105e-05
-6.97828e-06
-7.51887e-05
-6.46275e-05
-4.37903e-05
3.07561e-05
-5.53512e-05
1.83121e-06
-5.12167e-05
9.71667e-05
1.1798e-05
-4.1407e-05
-5.22408e-05
-4.83997e-05
-4.73997e-05
3.21255e-05
-3.50832e-05
-7.29868e-05
1.69734e-06
-2.53876e-05
-1.98884e-05
4.50562e-06
-1.73202e-05
7.05676e-05
5.70889e-05
-6.70659e-05
-3.48982e-05
-2.73383e-05
-7.02043e-05
-2.06063e-05
2.42674e-05
8.58863e-05
-8.70347e-05
6.93486e-06
-4.34532e-05
-3.62699e-05
6.90317e-05
3.75884e-05
-6.27586e-05
-4.99177e-06
2.55415e-05
-5.11215e-05
2.26247e-05
-1.34826e-05
-4.80206e-05
-1.98237e-05
3.05474e-06
3.73251e-05
3.42682e-05
-1.23486e-05
-2.31679e-05
-0.000132199
-1.6694e-07
-7.60623e-06
5.1258e-05
-7.35279e-06
-7.36322e-05
5.0168e-06
-3.30422e-05
-1.99093e-06
5.00251e-05
-7.79773e-06
-2.33897e-05
-8.47992e-06
1.05414e-06
-1.92297e-05
7.13232e-05
-5.15234e-05
7.82171e-06
3.1163e-05
6.53435e-05
-4.67902e-05
-2.90641e-05
-1.14909e-05
-2.4957e-05
-9.34282e-05
-2.04821e-05
3.51591e-05
4.8863e-05
3.64082e-05
-1.64525e-05
3.77698e-05
6.14581e-05
-4.75245e-05
4.48459e-05
4.40083e-05
9.82254e-06
-5.10863e-05
1.23073e-05
2.34437e-05
7.04301e-05
4.96682e-05
-3.57147e-05
2.25287e-05
5.27373e-06
-2.51164e-05
4.8009e-05
3.40395e-05
2.11626e-05
-2.89199e-05
-7.34264e-05
2.1675e-05
3.48733e-05
1.42131e-06
-4.63354e-05
1.81748e-06
-1.65714e-05
5.22442e-05
1.9271e-05
-4.25102e-05
-9.05944e-05
6.88445e-06
2.94286e-05
9.43267e-06
3.9076e-05
-4.01768e-05
2.79775e-05
-3.30703e-05
9.02755e-05
1.87058e-05
2.19358e-05
-2.38944e-05
3.89216e-05
7.95068e-05
-1.43028e-06
-1.07869e-05
-4.3123e-05
-5.63418e-05
3.65553e-05
5.69108e-06
-2.97655e-05
3.18504e-05
-3.75104e-05
-1.97684e-05
6.36955e-05
5.06417e-05
-4.80587e-05
-4.1877e-05
-9.31288e-06
-2.63555e-05
-1.33661e-05
5.09452e-05
7.41071e-05
-1.38811e-05
-5.52132e-05
-6.02389e-05
2.25472e-05
4.01654e-05
-3.56471e-05
4.60853e-05
6.04026e-05
1.00422e-05
-2.7285e-05
-6.8402e-05
1.03847e-05
-3.90665e-05
-6.67316e-05
1.89331e-05
-3.86648e-05
-7.26082e-05
1.55346e-05
3.44656e-05
-9.18214e-06
-2.52388e-05
3.49992e-05
6.71942e-05
-7.81438e-06
-2.34848e-05
1.90871e-05
-3.45567e-05
-3.24682e-06
3.17618e-05
-4.3362e-05
-4.44569e-05
-1.29158e-05
6.19071e-05
-1.54722e-05
-1.92425e-05
-9.33651e-07
1.07803e-05
-2.67867e-05
6.43284e-05
6.28643e-07
3.16113e-05
-3.45439e-05
-2.02107e-05
3.2981e-05
-8.92975e-06
-5.33775e-05
-6.5838e-05
-1.9774e-05
2.38349e-06
3.65471e-05
8.36805e-06
-1.87766e-06
1.48288e-05
-2.75739e-05
4.24775e-05
2.79529e-05
9.69106e-05
6.65832e-05
1.94263e-05
1.45669e-05
-1.36641e-05
5.90179e-05
5.77697e-05
-3.53305e-05
8.65557e-05
-1.88488e-05
-2.10225e-05
-5.39364e-05
1.12338e-05
-1.22982e-05
7.03161e-05
-1.07873e-05
6.14906e-06
5.77938e-05
3.47518e-05
-3.56392e-05
-5.85592e-06
4.38266e-05
2.99956e-05
1.48878e-05
3.09409e-06
-6.29972e-05
1.44138e-05
-9.34473e-05
4.10875e-05
-3.34162e-05
-7.29718e-05
6.78678e-06
-4.31377e-05
3.26065e-05
-5.40692e-05
-3.5189e-05
-7.38061e-06
-3.46786e-05
7.78155e-06
5.28588e-05
1.66993e-05
-1.61445e-06
7.61892e-05
-2.89595e-06
5.27895e-05
3.30994e-05
2.69054e-05
3.2012e-05
-4.14018e-05
-7.91212e-05
6.70378e-06
-3.7106e-05
3.38536e-07
3.12877e-05
2.55893e-05
4.62425e-05
-7.34488e-06
3.85569e-05
-1.82487e-05
8.60402e-05
-3.51763e-05
-2.4211e-05
-2.44782e-05
3.96875e-05
3.96366e-05
-5.59632e-06
-1.59818e-05
5.26487e-05
-3.12828e-05
-9.51299e-06
1.32086e-05
3.03084e-05
4.01442e-05
-6.21303e-05
6.55802e-06
-4.02802e-05
7.68164e-05
-2.3057e-05
2.42749e-06
-2.36238e-05
-7.65698e-06
1.05565e-06
-7.58457e-05
1.89051e-05
4.24924e-05
2.73355e-06
-4.68809e-05
-0.000111356
2.32968e-05
1.92826e-05
1.66951e-06
4.11416e-05
-1.26257e-05
3.11423e-06
-2.15393e-05
-7.41893e-05
3.57799e-05
1.81667e-05
-4.43209e-05
1.3806e-05
2.49424e-05
-1.40064e-05
-5.45263e-05
-1.59672e-05
4.84823e-05
-4.49969e-06
-0.000139603
5.79744e-05
3.08063e-05
0.000100899
-3.7275e-05
3.82719e-05
1.96724e-05
-2.19456e-05
-3.16994e-05
-3.15023e-05
5.79788e-05
8.84752e-05
-9.06736e-06
-5.99883e-05
9.21846e-06
8.46409e-06
-1.851e-08
-2.07853e-05
-3.90373e-05
0.000130275
-3.43212e-05
-4.70516e-05
5.37117e-05
-2.79665e-06
2.82284e-06
-3.79186e-05
-6.05413e-05
4.75423e-05
4.84362e-05
-1.75373e-05
3.74631e-05
-5.19101e-05
4.18178e-05
3.39497e-05
-6.99733e-05
2.7366e-05
3.88061e-05
1.67809e-05
-5.26783e-05
6.28689e-05
-2.19626e-05
-4.31011e-05
-7.40332e-06
-2.66791e-05
4.25467e-05
3.6495e-06
2.75732e-05
-4.73879e-05
-6.43684e-06
3.03094e-05
-2.26301e-05
-8.19344e-05
-4.95819e-05
1.36237e-05
3.36363e-05
4.53525e-05
-3.78173e-05
6.72049e-05
-2.02056e-05
-6.23036e-05
4.74699e-05
4.62763e-05
1.2405e-05
3.8288e-05
2.15033e-05
5.87148e-05
-6.50001e-05
-4.25664e-05
-1.34127e-05
4.3906e-05
4.78704e-05
-2.23204e-05
-6.05176e-05
1.98325e-06
-2.43715e-06
-3.00119e-05
1.48922e-05
2.92048e-05
7.28871e-05
7.06639e-05
-3.5825e-05
-0.000140627
2.58461e-05
1.20327e-06
-2.88256e-05
-4.69699e-05
5.72428e-05
3.12586e-05
1.75567e-05
-0.000107817
-1.58474e-05
1.13324e-05
3.99521e-05
3.28138e-05
-4.30103e-05
3.20359e-05
3.74883e-05
-3.91935e-05
2.83307e-05
3.71943e-05
-1.37138e-05
3.56368e-05
-5.44162e-05
8.30453e-05
3.0324e-05
-1.94274e-05
-2.67294e-05
6.84275e-05
4.1218e-05
-2.91601e-05
3.35348e-05
3.92146e-05
3.6837e-05
-3.48372e-05
-2.81513e-05
1.41673e-05
3.52944e-05
-7.15668e-05
-2.16158e-05
4.60051e-05
3.6499e-05
2.31859e-05
-3.1236e-05
-7.13485e-05
2.25479e-05
-3.52727e-05
7.69857e-05
-4.16432e-05
-1.37852e-05
7.45144e-05
-5.40665e-05
4.00399e-06
-1.77845e-05
-5.58044e-05
2.01227e-05
5.95965e-06
5.0582e-05
6.31158e-05
-6.58252e-05
8.14195e-05
-4.32241e-05
-2.44335e-05
2.67205e-05
4.3941e-06
9.56794e-06
7.65512e-06
4.39119e-06
-4.22163e-05
2.17021e-05
1.01277e-05
-1.56354e-05
-7.88142e-05
-2.79718e-05
-7.33114e-06
2.62831e-05
6.22869e-06
2.384e-05
-8.04092e-06
5.26162e-05
3.00963e-05
-3.07956e-05
-8.6859e-05
1.14745e-05
3.87328e-05
1.11609e-05
-2.85617e-05
-9.1251e-06
-2.48128e-06
2.21187e-05
-3.22994e-06
2.53443e-05
2.25467e-05
3.20964e-05
-2.08738e-05
-3.06277e-06
6.05511e-06
-3.41446e-06
3.49666e-05
-2.44875e-05
5.34735e-05
1.96629e-05
1.27888e-05
-1.15692e-05
2.92524e-05
2.8708e-06
3.3959e-05
-1.87166e-05
-2.88663e-06
-6.90414e-05
2.46686e-05
-5.03904e-06
-1.26836e-05
2.05981e-05
-2.63398e-05
-2.66195e-06
-3.02471e-05
-7.38935e-05
-1.16546e-05
0.000124286
-9.67178e-05
2.30558e-05
4.08881e-05
1.12085e-05
1.89695e-05
2.29755e-05
-6.50404e-05
-1.85563e-05
-3.58936e-05
9.8875e-06
-2.25082e-05
-0.000114619
5.0644e-05
-0.000120174
-5.2155e-05
0.000129995
-2.8554e-05
-3.29317e-05
1.3981e-05
-3.08757e-06
-4.58455e-06
-6.87174e-05
5.01052e-07
2.54062e-05
-3.06809e-05
-4.83696e-05
-2.09835e-05
3.77465e-05
3.99076e-05
1.09903e-05
-3.37758e-05
2.43066e-05
4.91927e-05
4.58609e-05
-7.13919e-05
-6.57423e-05
-4.48684e-05
5.14658e-05
2.45078e-06
-1.54728e-06
-6.96711e-05
3.41912e-07
-1.04237e-05
6.89423e-06
-2.29034e-05
-2.35555e-06
-3.06222e-05
3.27413e-05
-3.2268e-06
-1.03371e-05
-2.52565e-05
2.8462e-05
9.52233e-05
-3.02622e-05
3.2171e-05
4.43812e-05
-4.54086e-05
-0.000101101
-3.30776e-05
0.00011101
6.25437e-05
-5.28281e-05
-0.000107186
-1.18125e-05
6.8567e-05
3.46118e-05
-5.40467e-05
-5.2138e-05
4.75181e-05
-4.06371e-05
-0.000119436
6.1203e-05
-1.81563e-05
-3.11731e-05
0.000105493
-4.54732e-05
-9.29437e-05
-5.38455e-05
9.50554e-06
-5.54984e-05
1.67231e-05
4.2821e-06
-7.23695e-05
6.52438e-06
4.59248e-05
6.77723e-06
-2.06637e-06
5.32221e-05
2.83381e-05
-3.75982e-05
-4.85517e-05
0.000104193
-1.62808e-05
-5.72752e-06
-2.96998e-05
-2.67266e-06
-4.58121e-05
8.22765e-06
-1.31112e-05
-4.38881e-05
-3.36706e-05
-5.49544e-05
4.80603e-05
-3.43903e-05
5.50932e-05
-3.26778e-05
-2.49941e-05
-9.60962e-06
3.26963e-05
-4.34383e-05
8.21742e-05
3.99025e-06
1.01076e-05
-2.64166e-05
-1.685e-06
5.18316e-05
-5.0524e-05
7.65342e-05
-2.69971e-05
-2.84479e-05
5.25359e-06
1.91291e-05
5.75269e-05
-1.55065e-05
1.41477e-05
1.54792e-05
9.67546e-05
-2.60593e-05
2.79758e-06
-6.86487e-05
-4.36406e-06
5.35534e-06
-6.22822e-07
-1.12276e-05
2.76119e-05
-7.06451e-05
2.38856e-05
3.64641e-05
-5.86105e-06
-1.47324e-05
5.8536e-05
-1.46404e-06
5.05825e-07
-8.36351e-06
-6.68821e-05
-7.45873e-06
-5.66773e-05
5.49144e-05
-1.55678e-05
-6.51169e-05
1.93972e-05
-2.5009e-05
1.49553e-05
4.44497e-05
-8.87818e-06
-5.64917e-05
-7.07046e-05
-8.34186e-06
-2.96303e-05
-2.15252e-06
-1.83217e-05
-1.89256e-06
-0.000102778
8.74815e-06
3.24826e-05
3.07965e-05
-0.000103662
-3.61559e-05
2.02415e-05
8.39117e-05
4.75242e-06
-1.31453e-05
3.19694e-05
7.1479e-07
-3.71372e-05
-7.51381e-05
-6.92119e-05
-2.21236e-06
-7.09705e-05
1.36718e-06
-4.37514e-05
5.21014e-05
-3.20328e-05
-2.11227e-05
9.38249e-06
-1.06054e-06
4.85126e-06
-2.59293e-05
5.72978e-05
-2.03844e-05
4.02204e-05
1.71228e-05
-4.36114e-05
4.79119e-06
-4.09901e-05
-3.49479e-07
2.30941e-05
-3.31622e-05
1.34483e-05
1.23587e-05
-2.61035e-05
-4.6381e-05
1.17684e-05
-4.40206e-05
0.000100773
4.1617e-05
5.95758e-05
5.72705e-06
3.63588e-06
3.7217e-05
-2.83869e-05
-2.65329e-05
-3.87036e-05
-3.32444e-05
-2.94507e-06
-4.83473e-06
-7.42385e-05
-9.21182e-05
-4.12924e-05
9.36041e-05
1.79685e-05
2.46142e-05
5.07897e-05
-3.90918e-05
-4.86934e-05
-6.07772e-05
2.91873e-05
-7.01523e-05
2.39776e-05
5.71008e-05
1.43817e-05
-8.5445e-05
6.48921e-05
5.64079e-06
1.15011e-05
-0.000120717
5.33739e-05
7.36074e-05
5.39096e-06
1.3874e-05
1.18412e-05
-9.65106e-06
3.6696e-05
-3.03431e-05
4.71821e-05
6.17242e-05
-4.68118e-06
-4.04326e-05
-2.98407e-05
4.83403e-06
-1.19186e-06
4.36939e-05
-1.84961e-06
-1.13774e-05
-1.70608e-05
7.82479e-05
-4.58362e-06
1.79142e-05
-3.6285e-05
-7.78635e-05
7.38349e-05
-9.19309e-05
-5.20749e-06
2.09289e-05
2.3063e-06
7.0589e-05
3.83813e-05
7.42101e-06
5.50144e-05
-1.01444e-05
4.60942e-05
-1.68378e-05
-5.8875e-05
-4.91897e-05
5.14218e-05
5.45883e-05
-1.98535e-05
5.8101e-05
3.02005e-05
1.38804e-05
2.2496e-05
6.25566e-05
6.9025e-06
-8.80082e-05
-1.34252e-05
-5.00784e-06
4.86999e-05
5.99249e-05
6.30915e-05
1.4262e-06
2.14423e-05
-2.66382e-05
-9.90392e-06
-6.22047e-05
-1.60282e-05
3.25944e-05
-3.85356e-05
-1.90415e-05
5.31537e-05
-2.28167e-05
1.54099e-05
-4.23561e-05
-5.64381e-07
-5.11482e-05
-1.07914e-05
-0.000114606
2.06346e-05
1.91702e-05
7.28541e-05
2.73277e-05
-4.94907e-05
5.05783e-05
5.27872e-05
6.41992e-05
-7.99028e-06
4.43973e-05
-4.86516e-05
-2.58863e-05
-3.12891e-05
9.76645e-05
-4.46029e-05
-4.87092e-05
2.70451e-05
-5.04581e-05
1.36553e-05
-9.01835e-05
-0.000131355
6.04801e-05
5.67496e-05
-1.70094e-05
2.47729e-05
-9.10857e-06
5.16702e-05
-8.06586e-05
3.82909e-05
3.78347e-05
1.59069e-05
-7.97538e-06
-6.65511e-06
3.57416e-05
3.13779e-05
-9.32618e-05
-4.72956e-05
-9.38077e-05
-4.97688e-05
6.84746e-05
-3.54387e-05
9.14512e-06
-3.66231e-05
3.87212e-05
1.69342e-05
4.47612e-05
-5.40492e-05
2.94943e-05
6.61317e-05
1.22408e-05
-6.64281e-05
1.13354e-06
1.48165e-05
-1.36932e-05
6.08951e-05
-9.09204e-07
7.89303e-05
9.09693e-06
5.26161e-05
-9.66367e-05
3.41134e-05
6.60564e-06
-1.27824e-05
-4.43456e-05
-2.06706e-05
3.15043e-06
-9.30857e-07
-6.3061e-05
-0.000100798
-4.15873e-05
-9.15084e-05
-4.81862e-05
5.62919e-05
-1.52452e-05
-5.2291e-05
-2.41201e-05
-1.0829e-05
-4.57691e-05
-4.23093e-05
1.19053e-05
2.83613e-05
-1.41364e-05
-5.28248e-05
-6.13478e-05
1.77324e-05
1.07328e-05
-2.08276e-05
5.96312e-05
1.79035e-06
2.51201e-05
-2.36355e-05
5.88669e-05
3.18962e-05
4.76105e-05
-7.31895e-05
7.22464e-05
-0.000100922
-6.24079e-06
6.49313e-05
8.48924e-06
3.23069e-05
-3.30689e-06
-4.32206e-05
2.37837e-06
1.99969e-05
-1.27292e-05
9.59355e-06
3.61402e-05
2.75422e-05
6.9214e-05
-2.72389e-06
-6.32235e-05
-6.14568e-06
-7.61123e-06
-1.02113e-05
4.45029e-05
5.20062e-06
2.67306e-05
-6.62915e-06
-4.79841e-06
-2.94803e-05
1.43552e-05
5.69003e-06
6.79196e-05
9.01241e-06
3.43908e-05
1.84253e-05
1.29039e-05
-4.46525e-05
3.45935e-05
3.36546e-05
1.93843e-06
-1.88096e-05
4.46872e-05
-5.23891e-05
6.75365e-05
7.74651e-05
6.37164e-06
8.13848e-05
-3.18108e-05
2.20672e-05
-1.73564e-05
-2.87802e-05
-6.86577e-05
1.19237e-05
2.47911e-05
1.23703e-05
-3.48676e-05
2.16778e-05
-2.2075e-05
-3.52517e-06
1.23346e-05
1.70944e-06
2.97123e-05
-6.88564e-05
-1.33736e-05
9.18962e-05
-3.43516e-05
1.47285e-05
-1.23635e-05
4.94565e-05
2.42066e-05
-4.44688e-05
5.05936e-05
0.000106778
9.66933e-05
6.5251e-05
8.89297e-07
-7.20646e-06
-1.14565e-05
6.66901e-05
-5.44789e-06
4.01794e-05
-2.33976e-05
4.1756e-05
-3.41276e-05
-2.13975e-05
6.28107e-06
-2.62641e-05
3.58209e-05
-8.93141e-05
4.69461e-05
-3.57555e-05
3.30253e-05
2.34647e-05
-9.97121e-05
2.2134e-05
3.57014e-05
-1.87468e-05
2.13259e-05
-6.78231e-05
2.71617e-05
-5.16975e-05
5.68142e-05
4.8844e-05
-1.74801e-05
3.80407e-05
4.54164e-05
1.17882e-05
-8.37957e-06
2.07494e-05
-2.05647e-05
5.28255e-05
-7.57063e-05
-4.26273e-05
-7.67247e-06
2.04984e-05
-1.54357e-05
-3.12331e-05
1.17399e-05
6.21651e-05
4.88082e-05
4.33624e-06
-0.00012757
-5.0224e-05
-6.86676e-05
-6.60997e-05
3.09132e-05
7.61505e-05
-7.01363e-05
-7.02962e-06
9.28552e-06
4.82406e-05
3.83996e-06
8.47352e-06
-6.7576e-05
-1.85834e-05
1.21741e-05
-8.66794e-06
-3.19527e-05
-1.42835e-05
3.18361e-06
7.33079e-06
1.82408e-05
2.56511e-05
-6.78839e-05
-4.71459e-06
3.49286e-05
-5.05331e-05
1.0794e-05
-1.50148e-05
-1.6305e-05
-2.9539e-05
9.5389e-05
2.63905e-05
-1.76691e-05
-2.15017e-05
-1.27997e-05
8.03301e-06
-1.35812e-05
2.63904e-05
-7.18515e-06
-1.90842e-05
2.17281e-05
5.39329e-05
-9.03431e-05
5.7904e-05
-1.44779e-05
-1.46059e-05
-3.83225e-05
-4.54381e-05
2.61613e-05
5.74819e-05
2.07165e-05
1.80589e-05
2.61939e-05
-7.22159e-06
-2.65967e-05
2.38705e-05
-3.81792e-05
-3.29992e-05
2.86612e-05
4.19584e-06
5.34145e-05
-1.29018e-05
-4.54637e-06
9.10494e-05
1.63323e-05
1.69139e-05
-4.63272e-05
3.55744e-05
-3.91714e-05
2.29462e-05
1.72225e-05
3.08594e-06
6.80586e-05
6.72806e-05
-1.70233e-05
-7.54721e-06
4.55857e-05
-1.23876e-05
-6.61227e-06
0.000122597
3.26277e-05
1.8212e-05
2.49493e-05
-5.22537e-05
-2.22391e-05
-5.70167e-05
1.30502e-06
7.69016e-06
2.41778e-05
1.07717e-05
-5.20684e-05
1.76702e-05
6.44928e-05
-6.11886e-05
5.44072e-05
-4.49324e-05
-7.05204e-05
6.23066e-06
3.27922e-05
4.70878e-05
1.3269e-06
1.32953e-05
-7.78601e-05
-2.81828e-05
-6.89272e-06
0.000112601
3.68477e-05
-3.34255e-05
4.85629e-05
3.18349e-05
1.1489e-05
6.94895e-05
0.000133271
-7.38589e-05
-4.20362e-05
-1.68972e-05
2.04111e-05
8.13243e-06
-1.95544e-05
3.47547e-05
5.05917e-05
-6.30395e-05
-4.22691e-05
1.79628e-05
5.70348e-05
-6.66361e-07
2.8398e-05
-3.47797e-05
-8.23159e-05
-3.16929e-05
-5.51023e-05
-1.69484e-05
6.43997e-05
-5.57773e-05
5.25211e-05
-0.00011234
-7.10652e-05
-1.52234e-05
-1.60274e-05
-3.59305e-05
5.28323e-05
4.40277e-05
-4.75522e-06
-6.05781e-05
-2.0325e-05
1.72124e-05
2.40913e-05
-2.15004e-05
-3.80276e-05
1.8421e-05
-5.2297e-05
-1.48043e-05
-9.04258e-05
-1.86134e-05
-1.40986e-05
0.000121307
-2.54698e-05
5.25203e-05
3.79476e-05
3.11938e-05
-3.85308e-05
-5.10248e-06
-4.49663e-05
2.62945e-05
1.12427e-05
-1.86055e-05
1.74427e-05
-3.76211e-05
8.71113e-06
-3.17951e-05
7.14655e-05
-7.47015e-05
0.000101809
5.19649e-05
3.1805e-05
1.94155e-05
4.63657e-05
-3.00468e-06
1.62401e-05
7.99989e-05
3.6757e-06
-1.37991e-05
-5.21088e-05
-5.62185e-05
2.68224e-05
-3.78023e-05
-4.78229e-05
2.88633e-05
-2.68989e-05
-1.16546e-05
-5.02807e-05
3.10765e-05
-2.00594e-05
3.81089e-05
-8.71741e-05
-4.69047e-05
1.67191e-05
4.92436e-05
9.12789e-06
1.42609e-06
-6.69424e-05
-7.27305e-05
-1.43617e-05
-9.74501e-06
-1.56981e-05
2.6738e-05
-9.21222e-05
-5.88647e-05
-1.25879e-05
5.10602e-05
-8.9749e-05
7.86014e-05
1.30895e-05
1.51682e-05
-0.000114672
-4.1971e-05
1.06478e-05
8.84155e-05
-6.75337e-06
-6.93067e-06
1.08083e-05
-9.15197e-05
-1.49583e-05
1.07788e-05
5.1809e-05
-3.28287e-05
4.25935e-05
9.43127e-06
7.85571e-07
4.03608e-05
-3.83495e-06
2.6673e-05
-2.21871e-05
6.1153e-07
2.16416e-06
1.83091e-05
-2.01631e-05
-7.52346e-05
-8.20158e-05
-4.08834e-05
3.06881e-05
3.11449e-05
-1.76034e-05
-1.14897e-05
3.87502e-05
9.27481e-06
1.17531e-05
-4.44872e-05
-5.27484e-05
-4.26521e-05
9.60719e-05
-3.91064e-05
-6.17563e-05
-4.51254e-05
4.72041e-06
-4.1578e-05
-1.74786e-06
2.57664e-05
4.81142e-05
-3.50766e-05
2.89143e-05
3.42636e-05
2.19495e-05
-2.03146e-05
-2.84296e-05
2.95849e-05
6.23252e-05
1.8149e-05
-1.77092e-05
-4.22895e-05
-3.5183e-06
6.32219e-05
3.54694e-06
7.63219e-06
-5.29387e-06
1.01698e-05
2.74982e-05
2.91364e-05
-2.60758e-05
-5.97402e-05
8.67876e-05
3.29312e-05
-1.45724e-05
-1.42368e-05
5.72901e-05
3.84299e-06
9.81889e-05
0.000121367
-2.85933e-05
2.49979e-05
7.87189e-06
-1.86721e-05
-1.70156e-05
-7.32372e-05
0.00011208
-1.25978e-05
-6.01781e-05
7.86234e-06
3.08841e-05
9.78366e-06
7.8408e-06
1.71362e-05
4.85452e-08
-2.67227e-05
-2.56811e-05
-4.1337e-05
-4.55837e-05
-1.76239e-05
-7.76572e-06
-4.82695e-05
7.13975e-05
1.64245e-05
3.01733e-05
-3.19595e-05
1.39844e-05
-1.39405e-05
-1.55889e-05
4.47605e-06
-1.65856e-05
8.27657e-05
5.56016e-05
5.67292e-06
3.54114e-05
2.8623e-06
-1.63056e-05
2.07495e-05
9.63244e-06
-1.45014e-05
-4.88878e-05
-4.07485e-05
-9.69181e-06
4.12581e-05
-2.15805e-05
-3.41525e-05
5.64971e-05
-1.37317e-05
-5.04198e-05
3.84747e-05
-2.33625e-05
-1.19559e-06
-5.94468e-05
5.95185e-06
6.40077e-05
-7.39722e-05
-2.23712e-05
-4.28827e-06
-7.43156e-05
-1.581e-05
5.60062e-05
-2.41018e-05
5.20145e-05
4.58728e-05
-3.16426e-05
0.000122278
2.89965e-05
1.20706e-05
-2.74088e-05
-3.4468e-05
-3.20205e-05
5.98457e-05
4.27902e-05
-2.5427e-05
-1.62862e-05
4.25262e-05
4.55985e-05
-7.08052e-05
-4.5384e-05
-1.75915e-05
6.00134e-05
3.70811e-05
4.36971e-05
-7.64523e-06
2.17555e-05
1.48434e-05
1.47814e-05
3.49523e-05
1.44989e-05
-7.17351e-05
5.9079e-05
3.93521e-05
-1.62122e-05
4.74527e-05
-1.84565e-05
-3.8423e-05
8.4609e-05
5.78986e-05
5.29935e-05
-2.82947e-05
-1.40268e-05
-3.38187e-06
6.56866e-05
1.70162e-05
1.81661e-05
-1.4518e-05
-3.22157e-05
8.30158e-06
5.70648e-05
3.72083e-05
6.89619e-05
3.92867e-05
3.07861e-05
-1.59345e-05
4.175e-05
8.47236e-06
-3.21823e-05
-1.07551e-05
-1.45924e-05
5.39317e-05
1.21885e-05
2.11238e-05
-2.64747e-05
1.12989e-05
-2.39077e-05
-1.44511e-05
1.09978e-05
-7.73522e-06
4.69014e-06
1.68596e-05
6.67056e-05
1.57994e-05
-0.000107579
-8.24993e-05
6.52275e-06
-5.85072e-05
5.17324e-05
1.84863e-05
1.66778e-05
-7.07682e-05
5.68561e-06
-1.86231e-05
-4.33438e-05
5.83279e-05
-4.15358e-05
-7.7674e-05
-1.33207e-05
-3.74748e-05
-1.09919e-06
5.06308e-05
3.4345e-05
5.21394e-05
2.95317e-05
4.71445e-05
-2.02375e-05
0.000134813
5.51661e-05
-3.82706e-05
-1.12222e-05
0.000111733
1.12818e-06
-1.38341e-05
-2.07325e-05
-1.05341e-05
5.75162e-06
2.51083e-05
-6.47181e-05
1.22236e-06
0.00011825
2.02321e-05
-6.96788e-05
-8.34579e-05
9.06895e-05
4.29546e-05
-6.09938e-05
-2.33646e-06
4.52425e-06
-2.48621e-05
-7.4984e-05
-6.30156e-06
3.39788e-05
6.28866e-05
-2.65881e-06
-2.97545e-05
-6.67728e-05
-1.08316e-05
7.42334e-06
3.03183e-05
-1.26916e-05
1.26483e-05
-3.24746e-05
-1.54036e-05
4.65966e-05
-6.06524e-07
-7.33231e-05
-3.61174e-05
3.19344e-05
5.0712e-05
5.52053e-05
-3.86606e-05
-2.71015e-05
-1.73179e-06
4.00436e-05
-1.28824e-05
1.15242e-05
2.75378e-05
1.50998e-05
2.02364e-05
3.27821e-05
-0.000103584
-2.37206e-05
5.6299e-05
-3.56047e-05
-8.56422e-05
0.000101617
-2.90696e-05
2.15792e-05
-5.19506e-05
6.29341e-06
-5.95583e-05
3.80189e-06
-4.01153e-05
2.21792e-05
-9.73814e-06
6.35822e-05
-2.76122e-05
-2.54392e-05
9.06731e-05
-5.55887e-05
-3.51439e-05
1.47809e-05
-2.30938e-05
3.46848e-05
-4.10138e-05
-1.09313e-05
2.98407e-05
3.45649e-05
-4.78462e-05
-5.78742e-05
-3.72985e-05
3.58613e-05
-1.02362e-05
-1.76756e-05
3.83472e-05
4.54998e-06
-3.07261e-05
-6.31748e-05
6.19132e-06
-5.68881e-05
0.000120349
-0.000117729
-6.80869e-05
1.0187e-05
-1.0216e-05
2.82164e-05
-1.96019e-05
-6.25651e-06
3.50752e-05
9.93139e-06
-5.96482e-05
5.40575e-05
-2.97574e-05
-7.26199e-07
-9.39076e-06
-2.64806e-05
5.89003e-05
9.35841e-05
7.95015e-05
-1.68917e-05
-6.8293e-05
-7.77041e-05
4.75629e-05
-1.31782e-06
1.17453e-05
5.16309e-05
-6.3151e-05
2.21432e-05
3.45729e-05
-3.8962e-05
4.9273e-05
9.85293e-06
-2.73691e-05
-7.18008e-05
-2.20747e-06
9.41241e-06
5.68591e-05
-2.01402e-05
-8.62218e-06
7.08969e-06
9.57749e-07
-2.91984e-05
-3.6772e-05
9.86969e-07
-7.08329e-06
-7.77073e-05
4.07125e-05
2.28038e-05
-2.3353e-05
-2.82729e-05
6.35558e-06
-3.10615e-05
-2.37789e-05
5.87653e-05
3.77756e-05
-8.88542e-05
1.88744e-05
2.82158e-05
2.42067e-05
-1.97267e-05
3.1372e-05
2.67723e-05
-2.78921e-05
-1.14411e-05
4.39791e-05
-1.84722e-05
6.29015e-06
-9.41614e-06
3.67081e-05
-1.65388e-05
-2.219e-05
-3.26344e-05
2.11539e-05
-9.05294e-05
-2.25266e-05
7.17794e-06
-1.67805e-05
-5.12954e-05
-4.15266e-05
3.02579e-05
1.8758e-05
1.34518e-05
6.79973e-05
0.000103677
-2.68696e-05
-5.62216e-05
-7.36827e-06
-8.72929e-06
-8.22148e-06
-0.000119192
3.07667e-05
9.97077e-05
7.9355e-05
2.35231e-05
2.89467e-06
3.23569e-05
6.61891e-06
-1.27405e-05
-1.12369e-05
3.50201e-06
6.08943e-05
-6.73498e-06
5.99328e-05
-9.10868e-06
-4.93436e-05
-1.25011e-05
-1.7921e-05
3.41783e-05
-3.37979e-05
7.39563e-06
5.9454e-05
0.000102923
1.58967e-05
2.07475e-06
6.60837e-05
-5.49523e-05
-6.42203e-05
4.83601e-06
5.86049e-05
-3.53617e-05
-0.000113618
-3.21865e-05
8.25257e-06
3.03725e-05
4.09433e-06
1.25878e-05
-2.57907e-05
4.03041e-06
-1.99422e-05
-0.000115459
-8.30286e-06
2.34321e-05
1.67681e-05
-9.89938e-06
-1.77938e-05
3.41067e-05
5.38379e-05
-8.90228e-07
-3.26859e-05
-1.44828e-05
1.08393e-05
2.86294e-05
1.41956e-05
-1.13219e-05
4.3634e-05
-9.70054e-06
4.36602e-05
-6.26023e-06
-6.49596e-05
8.334e-05
7.37351e-06
-2.33593e-05
-5.29966e-05
8.21962e-06
-7.67078e-05
-5.47338e-05
1.69985e-05
-2.35284e-05
6.93039e-05
-5.89245e-05
-1.58969e-05
-3.79689e-06
-4.36553e-05
1.75007e-06
6.90867e-06
-1.56339e-05
-1.26816e-05
-6.31309e-06
-2.87471e-05
6.3584e-05
-1.27368e-05
2.98873e-05
-1.94586e-05
0.00010666
-6.87316e-05
2.64286e-06
7.97828e-05
-7.28981e-05
-2.11623e-05
-1.82877e-06
-5.65476e-06
-3.07191e-05
-1.66474e-07
6.13104e-05
-4.53608e-05
-3.93682e-06
2.74234e-05
5.10009e-05
6.30156e-06
2.1523e-05
-5.93148e-05
-4.52382e-05
-4.56916e-05
-4.39746e-05
-2.38913e-05
-5.03425e-05
-2.24268e-05
-6.28908e-05
1.11946e-05
0.000117078
1.08841e-05
1.6035e-06
7.11577e-06
-1.24831e-05
-9.79602e-05
1.17276e-05
-2.4335e-05
-6.52871e-05
-4.57335e-05
9.77499e-05
-2.84506e-05
2.46852e-05
2.8972e-05
-3.39514e-05
9.19261e-05
-5.06381e-05
-3.13991e-05
4.17e-07
2.26256e-05
5.23939e-05
-4.63511e-05
3.01981e-06
-7.2587e-05
3.62428e-05
4.538e-05
5.10279e-05
4.96119e-05
1.14623e-05
6.31448e-06
1.38574e-05
1.4141e-06
1.35631e-05
-5.94304e-05
-5.26091e-05
-3.14452e-05
3.6899e-05
-1.13063e-06
4.39375e-06
1.65976e-05
1.011e-05
-4.56735e-05
-5.67071e-05
-2.16058e-05
3.75416e-06
3.02105e-05
2.47175e-05
-3.70557e-05
-4.68161e-05
-8.03269e-05
-3.89209e-05
8.46453e-05
4.35204e-05
1.98976e-05
-8.1755e-06
-6.95791e-06
-5.38761e-05
3.58442e-05
-6.18509e-05
7.9043e-05
-1.59473e-05
-3.99174e-05
-6.26175e-05
3.5121e-05
5.15335e-05
1.97021e-06
-3.47081e-06
-9.95002e-06
5.45724e-05
-4.35942e-05
-3.20033e-05
3.58508e-05
-2.33701e-05
-7.19377e-06
3.16268e-05
-2.36786e-05
4.79082e-05
6.11596e-05
-1.50183e-05
5.83356e-05
-1.60111e-05
-5.55501e-05
-4.11181e-05
3.92949e-05
8.73664e-05
-9.01823e-06
2.39064e-05
5.31233e-05
-2.11829e-06
3.75921e-05
-6.11143e-05
-5.3782e-05
4.7565e-05
-2.97432e-05
-7.41599e-05
-1.3014e-05
3.82937e-06
-4.95904e-05
-1.00629e-05
1.4806e-05
3.36755e-06
-4.77561e-05
-3.2661e-05
4.77966e-06
4.4096e-05
4.0431e-05
-4.65773e-05
-4.65792e-05
9.95421e-06
6.58098e-05
1.77753e-05
-1.76022e-05
-0.000102062
4.7471e-05
-2.01669e-05
-7.77561e-06
-8.7989e-06
4.50332e-05
-5.59166e-06
-5.70053e-05
-1.93111e-05
-3.39666e-05
4.75906e-05
2.16512e-05
-2.22097e-05
-2.47789e-05
-2.54153e-05
-5.89085e-06
-1.15656e-05
-4.13181e-05
-4.0236e-05
1.20606e-06
-4.48264e-05
2.04253e-05
3.38093e-06
-2.82915e-05
3.01646e-05
9.3485e-06
-6.71307e-05
-4.05738e-05
7.0933e-05
-3.39554e-05
-2.67515e-05
2.1774e-05
1.56355e-05
1.44396e-05
-8.90205e-06
-1.19939e-05
1.44321e-05
8.70277e-05
-9.69623e-07
1.24227e-05
-5.59278e-05
-1.92772e-05
3.90811e-05
3.06987e-06
-4.05498e-05
7.56583e-06
6.72853e-05
3.9499e-05
-7.47542e-05
-3.48646e-05
2.46887e-05
-5.16146e-05
3.76697e-06
-4.08544e-05
-1.83193e-05
8.32831e-05
-3.53501e-05
-3.56359e-05
-9.10216e-06
-2.37032e-05
-7.61582e-05
-4.31737e-05
-3.44522e-05
3.03318e-05
-5.93206e-05
-4.43426e-05
-1.38484e-05
2.80143e-05
4.43449e-05
7.11228e-06
-4.18397e-07
-3.37956e-05
5.63174e-05
4.62113e-05
-7.51619e-05
0.000106831
-4.85464e-05
-1.38162e-05
-8.41217e-07