# vtk DataFile Version 1.0
Net Charge Density
ASCII
DATASET STRUCTURED_POINTS
DIMENSIONS 256 128 1
ORIGIN 0 0 0
SPACING 0.15625 0.15625 1
POINT_DATA 32768
SCALARS rhonet float
LOOKUP_TABLE default
-3.89607e-06
-9.51276e-05
0.000144792
9.63218e-05
3.56843e-05
0.000120451
-0.000118445
9.18577e-05
0.000154216
2.28991e-05
-3.75607e-05
0.000108725
0.00010382
7.94455e-05
0.000109346
4.99606e-05
8.77429e-05
0.000140236
4.05881e-05
-6.79103e-05
-6.40703e-06
0.00014186
0.000144767
4.77822e-05
3.7268e-05
2.07429e-05
7.74215e-05
9.0589e-05
-1.35215e-05
-7.27425e-05
5.23028e-05
3.97231e-05
4.36688e-05
6.90082e-05
1.24418e-05
0.000171713
1.68075e-05
7.28725e-05
7.7358e-05
-5.53101e-06
2.29322e-05
6.83218e-06
0.000136404
9.39816e-05
2.09389e-05
1.86829e-05
-3.16134e-05
6.95545e-05
0.000116214
7.88725e-05
-1.20075e-05
2.49785e-05
8.3442e-05
0.000148995
3.55954e-05
1.75037e-05
0.000151011
-5.17466e-05
5.67851e-06
7.16955e-05
5.02797e-05
6.06021e-05
7.16816e-06
8.01801e-05
8.22491e-05
-8.03835e-05
4.41822e-05
0.000136175
4.09957e-05
4.82833e-05
7.92335e-05
3.67109e-05
-2.69159e-05
4.96665e-05
-1.15251e-07
5.1155e-05
4.2086e-05
-3.83081e-05
9.21622e-05
0.000106615
8.71846e-05
2.54085e-05
7.49617e-05
0.000101106
4.54684e-05
-4.48013e-06
-1.66913e-05
6.70486e-05
0.000119669
-2.34873e-05
9.00027e-05
-1.47952e-05
-3.90528e-05
-6.21425e-06
-8.9918e-05
5.22721e-05
0.000157961
2.40979e-05
9.16885e-05
-2.49445e-05
0.000157723
9.0919e-05
-3.16929e-06
9.47256e-05
3.90385e-05
0.00013097
-2.58675e-07
-6.85496e-05
2.66288e-06
7.39997e-05
0.00013342
5.79281e-05
2.02984e-05
3.31153e-05
8.04213e-05
4.36599e-05
1.22658e-05
7.4969e-05
5.09603e-05
4.32272e-05
-3.98806e-05
-3.45637e-05
4.04441e-05
2.44898e-05
0.00011572
6.60872e-05
1.82551e-05
8.13097e-05
1.99637e-05
-1.881e-05
0.000119796
9.26165e-05
-2.24449e-06
3.77486e-05
2.03245e-05
6.79644e-06
4.46087e-05
-3.19158e-05
4.68969e-05
-1.15025e-05
-4.98404e-05
2.32959e-05
2.09624e-05
0.000160761
9.88222e-05
2.06381e-06
0.000137836
1.15247e-05
-3.11242e-05
0.000132418
1.7827e-05
2.91321e-05
0.000108428
-8.3457e-06
3.45043e-05
4.32304e-05
5.74649e-06
3.42709e-05
-5.27606e-06
1.75424e-05
7.67777e-05
2.50083e-05
0.000112709
-2.20691e-05
3.25856e-05
2.55231e-05
5.84619e-05
-6.12724e-05
0.000105448
0.000137295
2.50291e-05
4.32235e-05
7.45824e-05
0.000111579
-2.02678e-05
-8.13324e-06
8.72933e-05
-8.23219e-05
1.15583e-05
3.31809e-05
8.87692e-05
-7.06e-05
-3.1811e-05
5.65359e-06
1.0499e-05
7.98537e-05
4.14199e-05
7.20919e-05
0.000102554
7.46854e-05
2.48844e-05
0.000198125
8.16123e-05
-6.56995e-05
6.242e-05
0.000201229
4.75226e-05
8.32757e-05
7.8667e-05
-1.63089e-05
5.95987e-05
0.00014917
4.39013e-05
3.83357e-05
-1.00756e-05
6.97707e-05
-5.9888e-05
5.34237e-05
6.8681e-05
8.57906e-05
6.81021e-05
0.000137439
0.000106096
-2.4052e-05
0.000111081
-0.000131281
0.000102691
9.90946e-05
-5.28725e-05
-3.79211e-05
8.69744e-05
0.000114877
0.000176991
3.40522e-05
7.95292e-05
5.67446e-05
-3.69138e-05
-1.514e-05
8.6903e-05
6.86066e-05
6.2281e-06
4.16541e-05
2.36374e-05
2.60697e-05
0.000121307
-3.557e-05
-2.05769e-05
2.75017e-05
5.94514e-05
8.97946e-06
1.84993e-05
8.66937e-05
-5.82666e-05
-3.07569e-07
2.659e-05
-1.44094e-05
-2.21959e-05
-3.95463e-05
0.000128655
-4.29607e-06
2.10484e-05
-3.85129e-05
0.000102294
2.14376e-05
2.40529e-05
4.18614e-05
-0.000104899
2.47044e-05
-6.30287e-05
-2.51196e-05
-2.38868e-05
5.12265e-05
-2.60448e-05
-7.57644e-05
4.98932e-05
-6.60464e-05
-4.28997e-05
2.33416e-05
-5.99081e-05
-8.0273e-05
3.00258e-06
-4.24261e-05
4.66232e-06
1.08912e-05
-2.15751e-05
-4.06115e-06
-5.82075e-05
-6.74939e-05
-0.000106138
-1.79205e-05
-2.00458e-05
-5.72724e-05
-2.52763e-05
7.72986e-06
-3.07411e-05
-8.53869e-05
-3.53886e-05
-8.36141e-06
2.74419e-05
-7.95686e-05
-6.67484e-05
2.31331e-05
-0.000103178
-3.37883e-05
1.98341e-05
-8.20325e-05
-5.15869e-05
-4.38407e-05
8.67294e-06
3.55999e-05
-2.47124e-05
4.87431e-06
-0.000112384
-3.15176e-05
3.88795e-05
-3.3941e-05
-6.56131e-05
-4.11931e-05
-3.17376e-05
2.98241e-05
-2.8532e-05
-3.54563e-05
-2.34867e-05
-0.00011611
1.48104e-05
-3.37934e-05
4.563e-05
-5.12686e-05
-5.72852e-05
-3.73459e-05
-3.01475e-05
-6.05669e-05
-1.00289e-05
-7.96338e-05
-0.000109192
1.21043e-05
-4.39817e-05
9.01753e-06
-1.8436e-05
1.72418e-05
-5.13541e-05
-1.04337e-05
4.76097e-05
-2.54941e-05
5.74091e-05
2.16067e-07
-3.24124e-05
-5.04445e-05
-8.22563e-05
2.84823e-05
2.44661e-05
-6.16943e-05
-0.000158637
-4.16976e-05
-6.50762e-08
-1.6914e-05
8.77376e-06
5.33133e-05
3.15602e-06
-1.07941e-05
2.4714e-05
-5.965e-06
3.43234e-05
-2.73116e-05
-6.84732e-06
-1.89489e-06
-4.36434e-05
-0.000106618
-3.96515e-05
-2.96775e-05
-3.556e-05
1.6422e-05
-5.91243e-05
-4.27191e-05
-1.0673e-06
-6.00005e-06
5.4352e-05
-3.54241e-05
-7.13792e-05
-7.13184e-05
4.01705e-05
1.15472e-05
-5.23521e-05
-1.11548e-05
9.64571e-06
3.1898e-05
-8.57752e-05
1.39618e-05
-6.13795e-05
-7.74139e-06
-3.48627e-05
-1.67097e-05
-4.55657e-05
-6.96025e-05
1.70249e-05
-4.88103e-05
-2.07967e-05
1.5982e-05
-1.0553e-05
-2.35445e-05
-1.24411e-05
-3.31043e-05
-4.60123e-05
-1.33576e-05
-4.22454e-05
-8.32276e-06
-5.94475e-05
-7.82578e-05
8.69727e-06
-2.01981e-06
-8.38251e-05
1.0549e-05
-3.22358e-05
-4.36762e-05
-0.000117681
-8.72603e-06
-3.99579e-05
-3.83074e-05
-7.16746e-05
9.37073e-06
3.0005e-05
-1.70406e-05
-2.39995e-05
-1.85636e-06
-5.11224e-05
-2.02563e-05
-8.13482e-05
-6.40949e-05
3.62427e-05
-8.02707e-05
-7.5635e-06
2.37462e-05
2.21168e-05
-5.27812e-05
-2.42505e-06
3.60705e-05
-9.46561e-05
1.02373e-05
-2.21479e-05
3.9703e-05
-4.1351e-05
-2.55478e-05
-5.70063e-06
3.04061e-05
-6.907e-05
-4.77681e-05
3.6751e-05
-4.79643e-06
2.05846e-06
-4.86564e-05
-0.000107546
-6.60247e-05
-2.66009e-05
-2.24797e-05
-9.32976e-06
-1.88572e-05
-0.00010145
6.32252e-06
3.69591e-05
4.61051e-06
-1.08492e-05
-2.36547e-05
-8.50845e-05
-3.90905e-05
4.811e-05
-6.97747e-06
-7.51883e-05
-6.4628e-05
-4.37894e-05
3.07562e-05
-5.53507e-05
1.8311e-06
-5.12167e-05
9.71674e-05
1.17978e-05
-4.1407e-05
-5.22411e-05
-4.83993e-05
-4.73995e-05
3.21254e-05
-3.50827e-05
-7.29865e-05
1.6978e-06
-2.53881e-05
-1.98884e-05
4.50574e-06
-1.73202e-05
7.05677e-05
5.70894e-05
-6.70665e-05
-3.48976e-05
-2.73385e-05
-7.02043e-05
-2.06067e-05
2.42676e-05
8.58865e-05
-8.70349e-05
6.93463e-06
-4.34535e-05
-3.62697e-05
6.90324e-05
3.75876e-05
-6.27581e-05
-4.99096e-06
2.55419e-05
-5.11215e-05
2.26245e-05
-1.34829e-05
-4.80213e-05
-1.98241e-05
3.0552e-06
3.73244e-05
3.42679e-05
-1.23484e-05
-2.31675e-05
-0.000132199
-1.66823e-07
-7.60646e-06
5.12582e-05
-7.35302e-06
-7.36326e-05
5.01657e-06
-3.30424e-05
-1.99093e-06
5.00254e-05
-7.79808e-06
-2.33892e-05
-8.48039e-06
1.05496e-06
-1.92295e-05
7.13237e-05
-5.15236e-05
7.82229e-06
3.11635e-05
6.53432e-05
-4.67903e-05
-2.90642e-05
-1.14904e-05
-2.49564e-05
-9.34282e-05
-2.04816e-05
3.51591e-05
4.88634e-05
3.64082e-05
-1.64525e-05
3.77703e-05
6.14579e-05
-4.75246e-05
4.48453e-05
4.40088e-05
9.82312e-06
-5.10861e-05
1.23075e-05
2.34442e-05
7.04306e-05
4.96685e-05
-3.57145e-05
2.25288e-05
5.27361e-06
-2.51164e-05
4.80085e-05
3.40398e-05
2.1163e-05
-2.89194e-05
-7.34257e-05
2.16751e-05
3.48731e-05
1.42097e-06
-4.63354e-05
1.81724e-06
-1.65709e-05
5.22439e-05
1.9271e-05
-4.25105e-05
-9.05945e-05
6.88445e-06
2.94282e-05
9.43232e-06
3.9076e-05
-4.01768e-05
2.79774e-05
-3.30701e-05
9.02758e-05
1.87051e-05
2.19351e-05
-2.38946e-05
3.89219e-05
7.95068e-05
-1.42993e-06
-1.07868e-05
-4.31233e-05
-5.63416e-05
3.65553e-05
5.69143e-06
-2.97657e-05
3.18505e-05
-3.75103e-05
-1.97685e-05
6.36959e-05
5.06414e-05
-4.80588e-05
-4.1877e-05
-9.31241e-06
-2.63557e-05
-1.33661e-05
5.09446e-05
7.4107e-05
-1.38805e-05
-5.5213e-05
-6.02389e-05
2.25472e-05
4.01648e-05
-3.56471e-05
4.60853e-05
6.04026e-05
1.0042e-05
-2.72847e-05
-6.84026e-05
1.03849e-05
-3.90668e-05
-6.67316e-05
1.89332e-05
-3.86648e-05
-7.26085e-05
1.55342e-05
3.44662e-05
-9.18214e-06
-2.5239e-05
3.49988e-05
6.71945e-05
-7.81391e-06
-2.34856e-05
1.90875e-05
-3.45567e-05
-3.24659e-06
3.17623e-05
-4.33618e-05
-4.44563e-05
-1.29164e-05
6.19069e-05
-1.54718e-05
-1.92428e-05
-9.34349e-07
1.07805e-05
-2.67866e-05
6.43285e-05
6.27944e-07
3.16114e-05
-3.45439e-05
-2.02109e-05
3.29817e-05
-8.9294e-06
-5.33778e-05
-6.58382e-05
-1.97738e-05
2.38325e-06
3.65477e-05
8.36793e-06
-1.87778e-06
1.4829e-05
-2.75737e-05
4.24775e-05
2.79525e-05
9.69107e-05
6.6583e-05
1.94263e-05
1.45668e-05
-1.36637e-05
5.90176e-05
5.77695e-05
-3.53304e-05
8.6556e-05
-1.8848e-05
-2.1022e-05
-5.39366e-05
1.12338e-05
-1.22987e-05
7.03158e-05
-1.07869e-05
6.14917e-06
5.77942e-05
3.47515e-05
-3.56393e-05
-5.85627e-06
4.38269e-05
2.99953e-05
1.48878e-05
3.09362e-06
-6.29968e-05
1.44141e-05
-9.34463e-05
4.10874e-05
-3.34157e-05
-7.29718e-05
6.78643e-06
-4.31379e-05
3.26065e-05
-5.40691e-05
-3.51886e-05
-7.38073e-06
-3.46784e-05
7.78143e-06
5.28592e-05
1.66986e-05
-1.6155e-06
7.61896e-05
-2.89653e-06
5.27899e-05
3.30997e-05
2.69051e-05
3.20118e-05
-4.14015e-05
-7.91216e-05
6.70424e-06
-3.71062e-05
3.38536e-07
3.12878e-05
2.55895e-05
4.62425e-05
-7.34488e-06
3.85575e-05
-1.82485e-05
8.60394e-05
-3.51761e-05
-2.42107e-05
-2.44784e-05
3.96881e-05
3.96364e-05
-5.59608e-06
-1.59822e-05
5.26488e-05
-3.12827e-05
-9.51311e-06
1.32092e-05
3.03078e-05
4.0144e-05
-6.21306e-05
6.55756e-06
-4.02802e-05
7.68164e-05
-2.30571e-05
2.42714e-06
-2.36237e-05
-7.65664e-06
1.05612e-06
-7.58462e-05
1.89051e-05
4.24921e-05
2.7332e-06
-4.68808e-05
-0.000111356
2.32973e-05
1.92822e-05
1.66986e-06
4.11415e-05
-1.26262e-05
3.11481e-06
-2.15392e-05
-7.41896e-05
3.57792e-05
1.81661e-05
-4.43209e-05
1.38062e-05
2.4942e-05
-1.40066e-05
-5.45266e-05
-1.59674e-05
4.8483e-05
-4.49934e-06
-0.000139603
5.79742e-05
3.08068e-05
0.000100899
-3.72755e-05
3.82721e-05
1.96721e-05
-2.19459e-05
-3.17e-05
-3.15025e-05
5.79791e-05
8.84747e-05
-9.06724e-06
-5.99882e-05
9.21835e-06
8.46409e-06
-1.87429e-08
-2.0785e-05
-3.90372e-05
0.000130274
-3.43216e-05
-4.70513e-05
5.37115e-05
-2.79676e-06
2.82249e-06
-3.79188e-05
-6.0541e-05
4.75426e-05
4.8436e-05
-1.75373e-05
3.74635e-05
-5.19094e-05
4.18174e-05
3.39501e-05
-6.99733e-05
2.7366e-05
3.8806e-05
1.67812e-05
-5.26785e-05
6.28694e-05
-2.19624e-05
-4.31016e-05
-7.4032e-06
-2.66792e-05
4.25465e-05
3.64997e-06
2.75733e-05
-4.73883e-05
-6.43719e-06
3.03094e-05
-2.26303e-05
-8.19345e-05
-4.95821e-05
1.36235e-05
3.36366e-05
4.53528e-05
-3.78171e-05
6.72048e-05
-2.02062e-05
-6.23041e-05
4.74697e-05
4.6276e-05
1.2405e-05
3.82881e-05
2.15028e-05
5.87144e-05
-6.49997e-05
-4.25666e-05
-1.34119e-05
4.39065e-05
4.787e-05
-2.23207e-05
-6.05177e-05
1.98255e-06
-2.4375e-06
-3.00119e-05
1.48923e-05
2.92048e-05
7.28874e-05
7.06639e-05
-3.58255e-05
-0.000140627
2.58462e-05
1.2035e-06
-2.88257e-05
-4.697e-05
5.72432e-05
3.12584e-05
1.75568e-05
-0.000107818
-1.58474e-05
1.13326e-05
3.99518e-05
3.28142e-05
-4.30108e-05
3.20366e-05
3.74878e-05
-3.91935e-05
2.83307e-05
3.71942e-05
-1.37143e-05
3.56371e-05
-5.44162e-05
8.30448e-05
3.03237e-05
-1.94273e-05
-2.67292e-05
6.84279e-05
4.12175e-05
-2.91602e-05
3.35347e-05
3.92139e-05
3.68365e-05
-3.48368e-05
-2.81512e-05
1.41674e-05
3.52946e-05
-7.15666e-05
-2.16154e-05
4.60059e-05
3.64995e-05
2.31861e-05
-3.12363e-05
-7.13484e-05
2.25486e-05
-3.5272e-05
7.69859e-05
-4.16434e-05
-1.37859e-05
7.45142e-05
-5.40667e-05
4.00422e-06
-1.77843e-05
-5.58048e-05
2.01229e-05
5.96023e-06
5.05819e-05
6.3116e-05
-6.58248e-05
8.14189e-05
-4.32247e-05
-2.44332e-05
2.67205e-05
4.39445e-06
9.56806e-06
7.65501e-06
4.3906e-06
-4.22163e-05
2.17031e-05
1.01274e-05
-1.56355e-05
-7.88146e-05
-2.79716e-05
-7.33044e-06
2.62831e-05
6.2288e-06
2.38395e-05
-8.04104e-06
5.26158e-05
3.00963e-05
-3.07956e-05
-8.68589e-05
1.14747e-05
3.87325e-05
1.11609e-05
-2.85616e-05
-9.1251e-06
-2.48128e-06
2.21183e-05
-3.22983e-06
2.53441e-05
2.25466e-05
3.20961e-05
-2.08738e-05
-3.06277e-06
6.05569e-06
-3.41423e-06
3.49667e-05
-2.44876e-05
5.34741e-05
1.96629e-05
1.27883e-05
-1.15689e-05
2.92523e-05
2.87069e-06
3.39593e-05
-1.8717e-05
-2.88675e-06
-6.90415e-05
2.46681e-05
-5.03904e-06
-1.26839e-05
2.05979e-05
-2.63401e-05
-2.66172e-06
-3.02473e-05
-7.38932e-05
-1.16541e-05
0.000124286
-9.6718e-05
2.30563e-05
4.08883e-05
1.1208e-05
1.89698e-05
2.29755e-05
-6.50404e-05
-1.85566e-05
-3.5894e-05
9.88797e-06
-2.25088e-05
-0.000114619
5.06443e-05
-0.000120173
-5.21548e-05
0.000129995
-2.85545e-05
-3.29318e-05
1.3981e-05
-3.08803e-06
-4.58397e-06
-6.87174e-05
5.01052e-07
2.5406e-05
-3.06806e-05
-4.83698e-05
-2.0983e-05
3.77463e-05
3.99075e-05
1.09905e-05
-3.37755e-05
2.43062e-05
4.91919e-05
4.58608e-05
-7.1392e-05
-6.57423e-05
-4.48681e-05
5.14657e-05
2.45078e-06
-1.54693e-06
-6.96706e-05
3.42261e-07
-1.04238e-05
6.894e-06
-2.29038e-05
-2.35497e-06
-3.06219e-05
3.27413e-05
-3.22692e-06
-1.03374e-05
-2.52568e-05
2.84619e-05
9.52233e-05
-3.02618e-05
3.21704e-05
4.43805e-05
-4.54087e-05
-0.000101101
-3.30773e-05
0.00011101
6.25445e-05
-5.2828e-05
-0.000107187
-1.18124e-05
6.85672e-05
3.46117e-05
-5.40469e-05
-5.21372e-05
4.75179e-05
-4.06373e-05
-0.000119436
6.1203e-05
-1.81564e-05
-3.11728e-05
0.000105493
-4.54731e-05
-9.2944e-05
-5.38453e-05
9.50554e-06
-5.54983e-05
1.67226e-05
4.28222e-06
-7.23696e-05
6.52438e-06
4.59251e-05
6.7777e-06
-2.06684e-06
5.32221e-05
2.83383e-05
-3.75984e-05
-4.85518e-05
0.000104193
-1.62807e-05
-5.72728e-06
-2.96995e-05
-2.67231e-06
-4.58121e-05
8.228e-06
-1.31114e-05
-4.38886e-05
-3.36706e-05
-5.49544e-05
4.806e-05
-3.43899e-05
5.50938e-05
-3.26775e-05
-2.49939e-05
-9.60915e-06
3.26964e-05
-4.34385e-05
8.21743e-05
3.99037e-06
1.01076e-05
-2.64171e-05
-1.68616e-06
5.18316e-05
-5.05237e-05
7.65333e-05
-2.69967e-05
-2.84479e-05
5.25278e-06
1.91289e-05
5.75269e-05
-1.55069e-05
1.4148e-05
1.54794e-05
9.67544e-05
-2.60591e-05
2.79699e-06
-6.8649e-05
-4.36441e-06
5.35522e-06
-6.22822e-07
-1.12272e-05
2.76117e-05
-7.06454e-05
2.38863e-05
3.64642e-05
-5.86093e-06
-1.47325e-05
5.85358e-05
-1.46404e-06
5.06174e-07
-8.36339e-06
-6.6882e-05
-7.45803e-06
-5.66773e-05
5.49136e-05
-1.55682e-05
-6.51171e-05
1.93964e-05
-2.50089e-05
1.49549e-05
4.44498e-05
-8.87795e-06
-5.64912e-05
-7.07044e-05
-8.34162e-06
-2.963e-05
-2.15298e-06
-1.83214e-05
-1.89326e-06
-0.000102778
8.74838e-06
3.24829e-05
3.07967e-05
-0.000103662
-3.6156e-05
2.02423e-05
8.39115e-05
4.75242e-06
-1.31452e-05
3.19695e-05
7.15139e-07
-3.71361e-05
-7.51379e-05
-6.92119e-05
-2.21259e-06
-7.09707e-05
1.36707e-06
-4.3752e-05
5.2101e-05
-3.2033e-05
-2.11226e-05
9.38168e-06
-1.06113e-06
4.85114e-06
-2.59299e-05
5.72975e-05
-2.03841e-05
4.02206e-05
1.71228e-05
-4.36113e-05
4.79154e-06
-4.09898e-05
-3.49013e-07
2.30945e-05
-3.31625e-05
1.34481e-05
1.23585e-05
-2.61039e-05
-4.63811e-05
1.17683e-05
-4.40205e-05
0.000100773
4.16168e-05
5.9576e-05
5.72694e-06
3.63542e-06
3.72166e-05
-2.83862e-05
-2.65327e-05
-3.87034e-05
-3.32445e-05
-2.94531e-06
-4.83403e-06
-7.42387e-05
-9.21185e-05
-4.12923e-05
9.36036e-05
1.79682e-05
2.46144e-05
5.07894e-05
-3.90913e-05
-4.86937e-05
-6.07772e-05
2.91874e-05
-7.01526e-05
2.39772e-05
5.71006e-05
1.43808e-05
-8.5445e-05
6.4892e-05
5.64114e-06
1.15013e-05
-0.000120717
5.33736e-05
7.3608e-05
5.39166e-06
1.38744e-05
1.18413e-05
-9.65083e-06
3.66959e-05
-3.03435e-05
4.71818e-05
6.17247e-05
-4.68083e-06
-4.04323e-05
-2.98402e-05
4.83345e-06
-1.19221e-06
4.36947e-05
-1.84961e-06
-1.13775e-05
-1.70614e-05
7.82482e-05
-4.58327e-06
1.79141e-05
-3.62853e-05
-7.78632e-05
7.38348e-05
-9.19307e-05
-5.20796e-06
2.09289e-05
2.30607e-06
7.05891e-05
3.83817e-05
7.42101e-06
5.50147e-05
-1.01445e-05
4.60939e-05
-1.68374e-05
-5.88744e-05
-4.91895e-05
5.14218e-05
5.45883e-05
-1.98531e-05
5.81006e-05
3.02001e-05
1.38809e-05
2.24963e-05
6.25569e-05
6.90215e-06
-8.80084e-05
-1.34252e-05
-5.00795e-06
4.86998e-05
5.99248e-05
6.30915e-05
1.42632e-06
2.14431e-05
-2.6638e-05
-9.90403e-06
-6.22044e-05
-1.60285e-05
3.25948e-05
-3.85359e-05
-1.90415e-05
5.31543e-05
-2.28164e-05
1.54099e-05
-4.23559e-05
-5.64614e-07
-5.11482e-05
-1.07911e-05
-0.000114607
2.0635e-05
1.91706e-05
7.28536e-05
2.73274e-05
-4.94906e-05
5.0578e-05
5.27874e-05
6.41997e-05
-7.99075e-06
4.43971e-05
-4.86516e-05
-2.58866e-05
-3.12887e-05
9.76643e-05
-4.46027e-05
-4.87093e-05
2.70449e-05
-5.04586e-05
1.36552e-05
-9.01838e-05
-0.000131355
6.04799e-05
5.67494e-05
-1.70093e-05
2.47725e-05
-9.10833e-06
5.16705e-05
-8.06586e-05
3.82912e-05
3.78344e-05
1.59071e-05
-7.97608e-06
-6.655e-06
3.57421e-05
3.13765e-05
-9.32614e-05
-4.72957e-05
-9.38082e-05
-4.97687e-05
6.84744e-05
-3.54393e-05
9.14466e-06
-3.66229e-05
3.87212e-05
1.69347e-05
4.47611e-05
-5.40488e-05
2.94936e-05
6.61323e-05
1.22408e-05
-6.64288e-05
1.13342e-06
1.48165e-05
-1.36934e-05
6.0895e-05
-9.09087e-07
7.89308e-05
9.09681e-06
5.26163e-05
-9.66369e-05
3.41136e-05
6.60541e-06
-1.27824e-05
-4.43459e-05
-2.06705e-05
3.15055e-06
-9.3074e-07
-6.30612e-05
-0.000100799
-4.15873e-05
-9.15081e-05
-4.81859e-05
5.62919e-05
-1.52463e-05
-5.22909e-05
-2.412e-05
-1.0829e-05
-4.57695e-05
-4.23094e-05
1.19053e-05
2.83609e-05
-1.41362e-05
-5.28248e-05
-6.13481e-05
1.7733e-05
1.07331e-05
-2.08279e-05
5.96304e-05
1.79117e-06
2.51202e-05
-2.36349e-05
5.88676e-05
3.18957e-05
4.76108e-05
-7.31897e-05
7.22464e-05
-0.000100922
-6.24068e-06
6.49313e-05
8.48947e-06
3.23065e-05
-3.30678e-06
-4.32204e-05
2.3786e-06
1.99969e-05
-1.27287e-05
9.59355e-06
3.61399e-05
2.75425e-05
6.92134e-05
-2.72389e-06
-6.32235e-05
-6.1458e-06
-7.611e-06
-1.0211e-05
4.45026e-05
5.20167e-06
2.67304e-05
-6.63009e-06
-4.79841e-06
-2.94806e-05
1.43551e-05
5.68992e-06
6.79197e-05
9.01241e-06
3.43907e-05
1.84248e-05
1.29044e-05
-4.4652e-05
3.4594e-05
3.36547e-05
1.93843e-06
-1.88093e-05
4.46878e-05
-5.2389e-05
6.75366e-05
7.74649e-05
6.37188e-06
8.13848e-05
-3.18105e-05
2.20666e-05
-1.73561e-05
-2.8781e-05
-6.86583e-05
1.19235e-05
2.4791e-05
1.23703e-05
-3.48673e-05
2.1678e-05
-2.20754e-05
-3.52529e-06
1.23348e-05
1.70898e-06
2.97121e-05
-6.88564e-05
-1.33736e-05
9.1896e-05
-3.43517e-05
1.47282e-05
-1.23637e-05
4.94565e-05
2.4206e-05
-4.44682e-05
5.05934e-05
0.000106778
9.66929e-05
6.52508e-05
8.89646e-07
-7.20681e-06
-1.14565e-05
6.66903e-05
-5.448e-06
4.01794e-05
-2.33975e-05
4.17558e-05
-3.41274e-05
-2.13976e-05
6.28131e-06
-2.62641e-05
3.5821e-05
-8.93141e-05
4.69468e-05
-3.57557e-05
3.30248e-05
2.3464e-05
-9.97117e-05
2.21338e-05
3.57013e-05
-1.87464e-05
2.1326e-05
-6.78233e-05
2.71617e-05
-5.16979e-05
5.68142e-05
4.88439e-05
-1.74809e-05
3.8041e-05
4.54168e-05
1.17879e-05
-8.37969e-06
2.07494e-05
-2.05641e-05
5.28257e-05
-7.57056e-05
-4.2627e-05
-7.67317e-06
2.04982e-05
-1.54353e-05
-3.12327e-05
1.17394e-05
6.21655e-05
4.88076e-05
4.33612e-06
-0.000127571
-5.02237e-05
-6.8667e-05
-6.60996e-05
3.09137e-05
7.61505e-05
-7.01353e-05
-7.0302e-06
9.2847e-06
4.82404e-05
3.84008e-06
8.47317e-06
-6.75762e-05
-1.85831e-05
1.21739e-05
-8.66759e-06
-3.19525e-05
-1.42833e-05
3.18373e-06
7.33021e-06
1.82409e-05
2.56512e-05
-6.78841e-05
-4.71412e-06
3.49289e-05
-5.05331e-05
1.07932e-05
-1.50142e-05
-1.63043e-05
-2.95389e-05
9.5389e-05
2.63904e-05
-1.76692e-05
-2.15018e-05
-1.2799e-05
8.03312e-06
-1.3581e-05
2.63909e-05
-7.18539e-06
-1.90847e-05
2.17282e-05
5.39325e-05
-9.03434e-05
5.79044e-05
-1.44774e-05
-1.46057e-05
-3.83228e-05
-4.54383e-05
2.61613e-05
5.74822e-05
2.0716e-05
1.80587e-05
2.61946e-05
-7.22148e-06
-2.65972e-05
2.38707e-05
-3.81791e-05
-3.29991e-05
2.86613e-05
4.19584e-06
5.34144e-05
-1.29023e-05
-4.54602e-06
9.10496e-05
1.63317e-05
1.69148e-05
-4.63275e-05
3.5574e-05
-3.91714e-05
2.2946e-05
1.72226e-05
3.08605e-06
6.80583e-05
6.72811e-05
-1.70238e-05
-7.54651e-06
4.55873e-05
-1.23872e-05
-6.61251e-06
0.000122596
3.26281e-05
1.8212e-05
2.49491e-05
-5.22539e-05
-2.22389e-05
-5.70164e-05
1.30502e-06
7.69063e-06
2.41781e-05
1.07718e-05
-5.2068e-05
1.76702e-05
6.44932e-05
-6.11886e-05
5.44075e-05
-4.49327e-05
-7.052e-05
6.23125e-06
3.27921e-05
4.70872e-05
1.32713e-06
1.32954e-05
-7.78598e-05
-2.81832e-05
-6.89307e-06
0.000112601
3.68477e-05
-3.34256e-05
4.85627e-05
3.18347e-05
1.1489e-05
6.94892e-05
0.00013327
-7.38594e-05
-4.20361e-05
-1.68972e-05
2.04111e-05
8.13219e-06
-1.95547e-05
3.47551e-05
5.05913e-05
-6.30392e-05
-4.22692e-05
1.79629e-05
5.70348e-05
-6.66827e-07
2.83981e-05
-3.47797e-05
-8.23161e-05
-3.16928e-05
-5.5102e-05
-1.69483e-05
6.44001e-05
-5.57768e-05
5.25214e-05
-0.000112341
-7.10646e-05
-1.52239e-05
-1.6027e-05
-3.59297e-05
5.28322e-05
4.40273e-05
-4.75487e-06
-6.0578e-05
-2.03252e-05
1.72132e-05
2.40915e-05
-2.15007e-05
-3.8028e-05
1.84207e-05
-5.2297e-05
-1.48041e-05
-9.04265e-05
-1.86135e-05
-1.40981e-05
0.000121307
-2.54703e-05
5.25201e-05
3.79476e-05
3.11937e-05
-3.85309e-05
-5.10248e-06
-4.49663e-05
2.62952e-05
1.12428e-05
-1.86051e-05
1.7443e-05
-3.76215e-05
8.71089e-06
-3.17952e-05
7.14652e-05
-7.47015e-05
0.000101809
5.19645e-05
3.18052e-05
1.9415e-05
4.63658e-05
-3.00468e-06
1.62394e-05
7.99992e-05
3.67558e-06
-1.37993e-05
-5.21087e-05
-5.62182e-05
2.68223e-05
-3.78019e-05
-4.78236e-05
2.88634e-05
-2.68997e-05
-1.16547e-05
-5.02809e-05
3.10764e-05
-2.00593e-05
3.81091e-05
-8.71742e-05
-4.69044e-05
1.6719e-05
4.92434e-05
9.12719e-06
1.42609e-06
-6.69423e-05
-7.27305e-05
-1.43619e-05
-9.74489e-06
-1.56978e-05
2.6738e-05
-9.21224e-05
-5.88644e-05
-1.2588e-05
5.10603e-05
-8.97489e-05
7.86018e-05
1.30902e-05
1.51687e-05
-0.000114672
-4.19711e-05
1.06478e-05
8.84156e-05
-6.75349e-06
-6.93044e-06
1.08085e-05
-9.15198e-05
-1.49587e-05
1.07789e-05
5.18088e-05
-3.28288e-05
4.25937e-05
9.43104e-06
7.85571e-07
4.03612e-05
-3.83426e-06
2.66728e-05
-2.21872e-05
6.11413e-07
2.16463e-06
1.83091e-05
-2.01636e-05
-7.52343e-05
-8.20156e-05
-4.08833e-05
3.06889e-05
3.11447e-05
-1.76035e-05
-1.14893e-05
3.87499e-05
9.27423e-06
1.17541e-05
-4.44871e-05
-5.27485e-05
-4.26522e-05
9.60719e-05
-3.91064e-05
-6.17561e-05
-4.51249e-05
4.72029e-06
-4.15778e-05
-1.74763e-06
2.57662e-05
4.8114e-05
-3.50768e-05
2.89143e-05
3.42634e-05
2.19489e-05
-2.03149e-05
-2.84294e-05
2.95844e-05
6.23255e-05
1.8149e-05
-1.77097e-05
-4.22893e-05
-3.51772e-06
6.32224e-05
3.54659e-06
7.63184e-06
-5.29387e-06
1.01693e-05
2.74982e-05
2.9136e-05
-2.60756e-05
-5.97396e-05
8.67881e-05
3.29313e-05
-1.45724e-05
-1.42363e-05
5.72903e-05
3.84334e-06
9.81886e-05
0.000121367
-2.85936e-05
2.49977e-05
7.87177e-06
-1.86715e-05
-1.70148e-05
-7.32375e-05
0.000112081
-1.25972e-05
-6.01781e-05
7.86246e-06
3.08838e-05
9.78401e-06
7.84057e-06
1.71362e-05
4.86616e-08
-2.67227e-05
-2.56809e-05
-4.13368e-05
-4.55835e-05
-1.76243e-05
-7.7656e-06
-4.82695e-05
7.13975e-05
1.6424e-05
3.01738e-05
-3.19593e-05
1.39842e-05
-1.39406e-05
-1.55891e-05
4.47617e-06
-1.65858e-05
8.27656e-05
5.56017e-05
5.67257e-06
3.54116e-05
2.86254e-06
-1.63061e-05
2.07496e-05
9.63174e-06
-1.4501e-05
-4.88879e-05
-4.07486e-05
-9.69227e-06
4.12577e-05
-2.15801e-05
-3.41525e-05
5.64966e-05
-1.37318e-05
-5.04194e-05
3.84738e-05
-2.33627e-05
-1.19582e-06
-5.94469e-05
5.95255e-06
6.40079e-05
-7.39725e-05
-2.23716e-05
-4.28851e-06
-7.43155e-05
-1.58101e-05
5.60064e-05
-2.41024e-05
5.20146e-05
4.58728e-05
-3.16425e-05
0.000122277
2.89963e-05
1.20706e-05
-2.74092e-05
-3.44679e-05
-3.202e-05
5.98461e-05
4.27904e-05
-2.54271e-05
-1.62858e-05
4.25267e-05
4.55983e-05
-7.08047e-05
-4.5384e-05
-1.75914e-05
6.00134e-05
3.70804e-05
4.36979e-05
-7.64534e-06
2.17556e-05
1.48433e-05
1.47813e-05
3.49521e-05
1.44987e-05
-7.17351e-05
5.90795e-05
3.93529e-05
-1.62126e-05
4.74527e-05
-1.8456e-05
-3.84232e-05
8.46096e-05
5.78985e-05
5.29928e-05
-2.82944e-05
-1.40264e-05
-3.38187e-06
6.56869e-05
1.70164e-05
1.81666e-05
-1.45178e-05
-3.22156e-05
8.30239e-06
5.70643e-05
3.72087e-05
6.89621e-05
3.92862e-05
3.0786e-05
-1.59347e-05
4.17496e-05
8.47282e-06
-3.2182e-05
-1.07547e-05
-1.45928e-05
5.3932e-05
1.21887e-05
2.11241e-05
-2.64751e-05
1.12988e-05
-2.39076e-05
-1.44505e-05
1.09978e-05
-7.73452e-06
4.69026e-06
1.68589e-05
6.67061e-05
1.57998e-05
-0.000107579
-8.24989e-05
6.52322e-06
-5.85072e-05
5.17322e-05
1.84865e-05
1.66772e-05
-7.07679e-05
5.68526e-06
-1.86227e-05
-4.33433e-05
5.8328e-05
-4.15358e-05
-7.76742e-05
-1.33209e-05
-3.74744e-05
-1.09989e-06
5.06307e-05
3.43452e-05
5.21399e-05
2.95321e-05
4.71439e-05
-2.02371e-05
0.000134813
5.51657e-05
-3.82706e-05
-1.12217e-05
0.000111733
1.12841e-06
-1.38337e-05
-2.07328e-05
-1.05338e-05
5.75115e-06
2.51085e-05
-6.47183e-05
1.22283e-06
0.00011825
2.02316e-05
-6.96785e-05
-8.3458e-05
9.06894e-05
4.29547e-05
-6.09939e-05
-2.33611e-06
4.52413e-06
-2.48617e-05
-7.49842e-05
-6.30121e-06
3.39792e-05
6.28862e-05
-2.65893e-06
-2.97546e-05
-6.6773e-05
-1.08313e-05
7.42322e-06
3.03183e-05
-1.26915e-05
1.26481e-05
-3.24748e-05
-1.54036e-05
4.65959e-05
-6.0664e-07
-7.33235e-05
-3.61169e-05
3.19348e-05
5.07124e-05
5.52051e-05
-3.86606e-05
-2.71016e-05
-1.73203e-06
4.00435e-05
-1.28824e-05
1.15235e-05
2.75383e-05
1.51005e-05
2.02365e-05
3.27819e-05
-0.000103584
-2.37203e-05
5.6299e-05
-3.5605e-05
-8.56409e-05
0.000101617
-2.90702e-05
2.15785e-05
-5.19503e-05
6.29353e-06
-5.95583e-05
3.80224e-06
-4.01154e-05
2.21791e-05
-9.73779e-06
6.35824e-05
-2.7613e-05
-2.54392e-05
9.06728e-05
-5.55889e-05
-3.51442e-05
1.47803e-05
-2.30941e-05
3.4685e-05
-4.10145e-05
-1.09316e-05
2.98407e-05
3.4565e-05
-4.78463e-05
-5.78741e-05
-3.72987e-05
3.58615e-05
-1.02359e-05
-1.76757e-05
3.83474e-05
4.55033e-06
-3.07253e-05
-6.31751e-05
6.19097e-06
-5.68887e-05
0.000120349
-0.000117729
-6.80865e-05
1.01872e-05
-1.02159e-05
2.82163e-05
-1.96025e-05
-6.25628e-06
3.50747e-05
9.93162e-06
-5.96483e-05
5.40576e-05
-2.97577e-05
-7.25966e-07
-9.39076e-06
-2.64805e-05
5.89006e-05
9.35841e-05
7.95012e-05
-1.68919e-05
-6.82935e-05
-7.77037e-05
4.75623e-05
-1.31771e-06
1.17447e-05
5.16309e-05
-6.31509e-05
2.21429e-05
3.45724e-05
-3.89619e-05
4.92728e-05
9.85363e-06
-2.73694e-05
-7.1801e-05
-2.20723e-06
9.41264e-06
5.68596e-05
-2.014e-05
-8.62242e-06
7.09016e-06
9.57632e-07
-2.91978e-05
-3.67721e-05
9.86736e-07
-7.08317e-06
-7.77072e-05
4.07125e-05
2.28039e-05
-2.33534e-05
-2.8273e-05
6.35604e-06
-3.1061e-05
-2.37783e-05
5.87648e-05
3.77758e-05
-8.88547e-05
1.88744e-05
2.8216e-05
2.42073e-05
-1.97262e-05
3.13715e-05
2.6772e-05
-2.78912e-05
-1.14413e-05
4.39795e-05
-1.84721e-05
6.2898e-06
-9.41602e-06
3.67076e-05
-1.65388e-05
-2.21906e-05
-3.26345e-05
2.11542e-05
-9.05289e-05
-2.25267e-05
7.17817e-06
-1.67805e-05
-5.12954e-05
-4.15265e-05
3.02579e-05
1.87578e-05
1.34514e-05
6.79973e-05
0.000103677
-2.68696e-05
-5.62216e-05
-7.36886e-06
-8.72917e-06
-8.22055e-06
-0.000119192
3.07655e-05
9.97079e-05
7.93556e-05
2.35235e-05
2.89537e-06
3.23562e-05
6.61891e-06
-1.27399e-05
-1.12373e-05
3.50189e-06
6.08944e-05
-6.73509e-06
5.99332e-05
-9.10787e-06
-4.9344e-05
-1.25008e-05
-1.79209e-05
3.4178e-05
-3.37978e-05
7.3954e-06
5.94533e-05
0.000102923
1.58971e-05
2.07464e-06
6.60842e-05
-5.49526e-05
-6.422e-05
4.83613e-06
5.86052e-05
-3.53623e-05
-0.000113619
-3.21858e-05
8.25233e-06
3.03729e-05
4.09479e-06
1.25882e-05
-2.57912e-05
4.03018e-06
-1.99419e-05
-0.000115459
-8.30321e-06
2.34317e-05
1.67682e-05
-9.89926e-06
-1.77943e-05
3.41064e-05
5.38379e-05
-8.89529e-07
-3.26863e-05
-1.44828e-05
1.08393e-05
2.86293e-05
1.41958e-05
-1.1321e-05
4.36335e-05
-9.70019e-06
4.36599e-05
-6.25988e-06
-6.49593e-05
8.33399e-05
7.37363e-06
-2.33589e-05
-5.29967e-05
8.21915e-06
-7.67078e-05
-5.47337e-05
1.69984e-05
-2.35281e-05
6.93038e-05
-5.89243e-05
-1.58965e-05
-3.79677e-06
-4.36553e-05
1.74972e-06
6.90902e-06
-1.56339e-05
-1.26814e-05
-6.31344e-06
-2.87476e-05
6.35842e-05
-1.27364e-05
2.98878e-05
-1.94594e-05
0.00010666
-6.87314e-05
2.64251e-06
7.97829e-05
-7.28989e-05
-2.11624e-05
-1.82912e-06
-5.65487e-06
-3.07191e-05
-1.66474e-07
6.13108e-05
-4.53609e-05
-3.93717e-06
2.74237e-05
5.10009e-05
6.30179e-06
2.15227e-05
-5.93154e-05
-4.52378e-05
-4.56915e-05
-4.39747e-05
-2.38913e-05
-5.03425e-05
-2.24268e-05
-6.28909e-05
1.11948e-05
0.000117078
1.08853e-05
1.6035e-06
7.11589e-06
-1.24832e-05
-9.79606e-05
1.17279e-05
-2.43351e-05
-6.52869e-05
-4.57342e-05
9.775e-05
-2.84505e-05
2.46856e-05
2.89713e-05
-3.39516e-05
9.19262e-05
-5.06376e-05
-3.13991e-05
4.17931e-07
2.2626e-05
5.23934e-05
-4.63509e-05
3.01946e-06
-7.25881e-05
3.62424e-05
4.53796e-05
5.10275e-05
4.96124e-05
1.14616e-05
6.31472e-06
1.38574e-05
1.41433e-06
1.35629e-05
-5.94301e-05
-5.26089e-05
-3.14449e-05
3.68988e-05
-1.13004e-06
4.39421e-06
1.65976e-05
1.011e-05
-4.56736e-05
-5.6707e-05
-2.16059e-05
3.75404e-06
3.02105e-05
2.47175e-05
-3.70552e-05
-4.68161e-05
-8.03268e-05
-3.89203e-05
8.46445e-05
4.35202e-05
1.98981e-05
-8.17527e-06
-6.95698e-06
-5.3876e-05
3.58439e-05
-6.18509e-05
7.90425e-05
-1.59475e-05
-3.99174e-05
-6.26171e-05
3.51218e-05
5.15336e-05
1.97079e-06
-3.47057e-06
-9.95002e-06
5.45725e-05
-4.3594e-05
-3.20034e-05
3.58509e-05
-2.33705e-05
-7.19342e-06
3.1627e-05
-2.36786e-05
4.79089e-05
6.11597e-05
-1.50184e-05
5.83357e-05
-1.60112e-05
-5.55506e-05
-4.11179e-05
3.92955e-05
8.73666e-05
-9.01881e-06
2.39068e-05
5.31232e-05
-2.11806e-06
3.75925e-05
-6.11139e-05
-5.37825e-05
4.75657e-05
-2.97432e-05
-7.41598e-05
-1.30141e-05
3.82902e-06
-4.959e-05
-1.00631e-05
1.48063e-05
3.36801e-06
-4.77559e-05
-3.26614e-05
4.77955e-06
4.40956e-05
4.04306e-05
-4.65773e-05
-4.65792e-05
9.95374e-06
6.58102e-05
1.77749e-05
-1.76013e-05
-0.000102062
4.74703e-05
-2.01666e-05
-7.7755e-06
-8.79925e-06
4.50331e-05
-5.59189e-06
-5.70056e-05
-1.93106e-05
-3.39666e-05
4.75906e-05
2.16512e-05
-2.2209e-05
-2.47787e-05
-2.54157e-05
-5.89085e-06
-1.15657e-05
-4.13185e-05
-4.02362e-05
1.20536e-06
-4.48262e-05
2.04258e-05
3.38082e-06
-2.82909e-05
3.01641e-05
9.34815e-06
-6.71302e-05
-4.0574e-05
7.09338e-05
-3.39561e-05
-2.6751e-05
2.17736e-05
1.56362e-05
1.44395e-05
-8.90146e-06
-1.19938e-05
1.44328e-05
8.70284e-05
-9.69623e-07
1.2423e-05
-5.59276e-05
-1.92774e-05
3.90812e-05
3.06964e-06
-4.05499e-05
7.56641e-06
6.72847e-05
3.94987e-05
-7.47542e-05
-3.48646e-05
2.46888e-05
-5.16153e-05
3.76708e-06
-4.08548e-05
-1.83192e-05
8.32828e-05
-3.53503e-05
-3.56362e-05
-9.10193e-06
-2.37034e-05
-7.61582e-05
-4.31737e-05
-3.44522e-05
3.03321e-05
-5.93207e-05
-4.43419e-05
-1.38483e-05
2.80144e-05
4.43454e-05
7.11216e-06
-4.18397e-07
-3.3796e-05
5.6318e-05
4.62115e-05
-7.51622e-05
0.000106831
-4.85462e-05
-1.38163e-05
-8.41799e-07
-1.47611e-05