# vtk DataFile Version 1.0
Net Charge Density
ASCII
DATASET STRUCTURED_POINTS
DIMENSIONS 256 128 1
ORIGIN 0 0 0
SPACING 0.15625 0.15625 1
POINT_DATA 32768
SCALARS rhonet float
LOOKUP_TABLE default
-3.89642e-06
-9.51277e-05
0.000144792
9.63219e-05
3.56846e-05
0.000120451
-0.000118445
9.1858e-05
0.000154216
2.28998e-05
-3.75607e-05
0.000108726
0.00010382
7.94458e-05
0.000109346
4.99607e-05
8.77436e-05
0.000140235
4.05877e-05
-6.79099e-05
-6.4068e-06
0.00014186
0.000144767
4.77826e-05
3.7268e-05
2.07426e-05
7.74218e-05
9.0589e-05
-1.35216e-05
-7.27428e-05
5.23027e-05
3.97231e-05
4.36689e-05
6.9008e-05
1.24415e-05
0.000171713
1.6807e-05
7.28724e-05
7.73575e-05
-5.53054e-06
2.29317e-05
6.83172e-06
0.000136404
9.39815e-05
2.09382e-05
1.86828e-05
-3.16132e-05
6.95548e-05
0.000116213
7.88725e-05
-1.20072e-05
2.49785e-05
8.34428e-05
0.000148995
3.55956e-05
1.75037e-05
0.000151011
-5.17473e-05
5.67804e-06
7.16958e-05
5.02794e-05
6.0602e-05
7.16792e-06
8.01801e-05
8.22488e-05
-8.0383e-05
4.41819e-05
0.000136175
4.09959e-05
4.82834e-05
7.92337e-05
3.67112e-05
-2.69157e-05
4.9667e-05
-1.15251e-07
5.11555e-05
4.20861e-05
-3.83082e-05
9.21619e-05
0.000106615
8.71845e-05
2.54083e-05
7.49612e-05
0.000101106
4.54683e-05
-4.48013e-06
-1.66914e-05
6.70485e-05
0.000119669
-2.34877e-05
9.00028e-05
-1.47952e-05
-3.90527e-05
-6.21448e-06
-8.99172e-05
5.22716e-05
0.000157961
2.40975e-05
9.16884e-05
-2.49443e-05
0.000157724
9.09192e-05
-3.16894e-06
9.4726e-05
3.90384e-05
0.00013097
-2.58442e-07
-6.85496e-05
2.663e-06
7.39996e-05
0.00013342
5.79277e-05
2.02988e-05
3.31155e-05
8.04213e-05
4.36598e-05
1.22655e-05
7.49691e-05
5.09606e-05
4.32277e-05
-3.98807e-05
-3.4563e-05
4.04445e-05
2.44896e-05
0.00011572
6.60873e-05
1.82546e-05
8.13095e-05
1.99642e-05
-1.881e-05
0.000119796
9.26162e-05
-2.24425e-06
3.77484e-05
2.03243e-05
6.79679e-06
4.46094e-05
-3.19156e-05
4.68964e-05
-1.15021e-05
-4.98407e-05
2.32959e-05
2.09626e-05
0.000160761
9.88224e-05
2.06369e-06
0.000137836
1.15241e-05
-3.1124e-05
0.000132418
1.78266e-05
2.91319e-05
0.000108428
-8.34558e-06
3.45046e-05
4.32306e-05
5.74661e-06
3.42709e-05
-5.27664e-06
1.75426e-05
7.67779e-05
2.50082e-05
0.000112709
-2.20697e-05
3.25851e-05
2.55225e-05
5.84618e-05
-6.12723e-05
0.000105448
0.000137296
2.50292e-05
4.32234e-05
7.45824e-05
0.000111578
-2.02679e-05
-8.13347e-06
8.72934e-05
-8.23224e-05
1.15581e-05
3.31805e-05
8.87694e-05
-7.06002e-05
-3.1811e-05
5.65359e-06
1.04987e-05
7.98535e-05
4.14202e-05
7.20923e-05
0.000102554
7.46856e-05
2.48845e-05
0.000198125
8.16126e-05
-6.5699e-05
6.242e-05
0.000201229
4.75227e-05
8.32756e-05
7.8667e-05
-1.63089e-05
5.95991e-05
0.00014917
4.39014e-05
3.83356e-05
-1.00759e-05
6.97705e-05
-5.98875e-05
5.34237e-05
6.86803e-05
8.57906e-05
6.81025e-05
0.000137439
0.000106096
-2.40523e-05
0.000111081
-0.000131281
0.000102691
9.90948e-05
-5.28732e-05
-3.79209e-05
8.69746e-05
0.000114877
0.000176992
3.40522e-05
7.95296e-05
5.67449e-05
-3.69136e-05
-1.51398e-05
8.69036e-05
6.86066e-05
6.22845e-06
4.16547e-05
2.36372e-05
2.60698e-05
0.000121307
-3.55699e-05
-2.05771e-05
2.7501e-05
5.94511e-05
8.97946e-06
1.84993e-05
8.66944e-05
-5.82663e-05
-3.07453e-07
2.65898e-05
-1.44095e-05
-2.21962e-05
-3.95462e-05
0.000128656
-4.29642e-06
2.10488e-05
-3.8513e-05
0.000102293
2.14378e-05
2.4053e-05
4.18614e-05
-0.0001049
2.47046e-05
-6.30285e-05
-2.51192e-05
-2.38873e-05
5.12257e-05
-2.6045e-05
-7.57641e-05
4.98933e-05
-6.60461e-05
-4.29003e-05
2.33414e-05
-5.99083e-05
-8.02724e-05
3.0027e-06
-4.24261e-05
4.6622e-06
1.08911e-05
-2.15753e-05
-4.06092e-06
-5.82077e-05
-6.74938e-05
-0.000106138
-1.79203e-05
-2.00458e-05
-5.72718e-05
-2.52768e-05
7.73021e-06
-3.07406e-05
-8.53869e-05
-3.5389e-05
-8.36153e-06
2.74418e-05
-7.95684e-05
-6.67484e-05
2.31336e-05
-0.000103178
-3.37884e-05
1.98343e-05
-8.20333e-05
-5.15864e-05
-4.38407e-05
8.67271e-06
3.55999e-05
-2.47128e-05
4.87408e-06
-0.000112384
-3.15172e-05
3.88799e-05
-3.3941e-05
-6.56131e-05
-4.11931e-05
-3.17376e-05
2.98235e-05
-2.85323e-05
-3.54571e-05
-2.34859e-05
-0.00011611
1.48106e-05
-3.37934e-05
4.56306e-05
-5.12685e-05
-5.72855e-05
-3.73451e-05
-3.01475e-05
-6.05667e-05
-1.00285e-05
-7.96344e-05
-0.000109192
1.21042e-05
-4.39815e-05
9.01741e-06
-1.84355e-05
1.72413e-05
-5.13536e-05
-1.04333e-05
4.76099e-05
-2.54939e-05
5.74086e-05
2.16067e-07
-3.24122e-05
-5.04444e-05
-8.2256e-05
2.84826e-05
2.44661e-05
-6.16945e-05
-0.000158637
-4.16976e-05
-6.57747e-08
-1.6914e-05
8.77352e-06
5.33124e-05
3.15579e-06
-1.07938e-05
2.47145e-05
-5.96524e-06
3.43233e-05
-2.73117e-05
-6.8472e-06
-1.89454e-06
-4.36436e-05
-0.000106618
-3.96515e-05
-2.96769e-05
-3.556e-05
1.64219e-05
-5.91241e-05
-4.2719e-05
-1.06753e-06
-6.00051e-06
5.43523e-05
-3.54238e-05
-7.13791e-05
-7.13188e-05
4.01704e-05
1.15472e-05
-5.23521e-05
-1.11547e-05
9.64513e-06
3.18986e-05
-8.57748e-05
1.39616e-05
-6.13794e-05
-7.7415e-06
-3.4863e-05
-1.67098e-05
-4.55654e-05
-6.96025e-05
1.70246e-05
-4.881e-05
-2.0797e-05
1.5981e-05
-1.05533e-05
-2.35448e-05
-1.24412e-05
-3.31046e-05
-4.60119e-05
-1.3358e-05
-4.2246e-05
-8.32335e-06
-5.94477e-05
-7.82579e-05
8.69704e-06
-2.01946e-06
-8.3825e-05
1.05491e-05
-3.22356e-05
-4.36762e-05
-0.000117681
-8.72568e-06
-3.99575e-05
-3.83069e-05
-7.16747e-05
9.37073e-06
3.00056e-05
-1.70413e-05
-2.39988e-05
-1.85601e-06
-5.11226e-05
-2.02564e-05
-8.13482e-05
-6.40948e-05
3.62425e-05
-8.02716e-05
-7.5635e-06
2.37459e-05
2.21168e-05
-5.27813e-05
-2.42493e-06
3.60704e-05
-9.46565e-05
1.02374e-05
-2.21478e-05
3.97027e-05
-4.13507e-05
-2.5548e-05
-5.70086e-06
3.04061e-05
-6.907e-05
-4.7768e-05
3.67508e-05
-4.79654e-06
2.05962e-06
-4.86565e-05
-0.000107547
-6.60243e-05
-2.66007e-05
-2.248e-05
-9.32999e-06
-1.88571e-05
-0.00010145
6.32263e-06
3.6959e-05
4.6104e-06
-1.08491e-05
-2.36544e-05
-8.50839e-05
-3.90911e-05
4.81096e-05
-6.97805e-06
-7.5189e-05
-6.46277e-05
-4.37897e-05
3.07565e-05
-5.53509e-05
1.83121e-06
-5.12168e-05
9.71671e-05
1.17975e-05
-4.14071e-05
-5.22411e-05
-4.83999e-05
-4.73997e-05
3.21257e-05
-3.50826e-05
-7.29871e-05
1.69792e-06
-2.53874e-05
-1.9888e-05
4.50609e-06
-1.73203e-05
7.05675e-05
5.70891e-05
-6.70664e-05
-3.48979e-05
-2.73387e-05
-7.02043e-05
-2.06062e-05
2.42674e-05
8.58863e-05
-8.70347e-05
6.93486e-06
-4.34536e-05
-3.62699e-05
6.90325e-05
3.75875e-05
-6.27586e-05
-4.99131e-06
2.55416e-05
-5.11212e-05
2.26243e-05
-1.3483e-05
-4.80209e-05
-1.98244e-05
3.05497e-06
3.73246e-05
3.42677e-05
-1.23483e-05
-2.31679e-05
-0.000132199
-1.66707e-07
-7.60611e-06
5.12581e-05
-7.35291e-06
-7.36323e-05
5.0168e-06
-3.30426e-05
-1.99047e-06
5.00249e-05
-7.79773e-06
-2.33889e-05
-8.47992e-06
1.05426e-06
-1.92295e-05
7.13235e-05
-5.15236e-05
7.82218e-06
3.11626e-05
6.53439e-05
-4.67905e-05
-2.90642e-05
-1.14907e-05
-2.49564e-05
-9.34281e-05
-2.04819e-05
3.51588e-05
4.8863e-05
3.6408e-05
-1.64525e-05
3.77696e-05
6.14575e-05
-4.75242e-05
4.48448e-05
4.40085e-05
9.82312e-06
-5.1087e-05
1.2307e-05
2.34441e-05
7.04307e-05
4.96684e-05
-3.57145e-05
2.25289e-05
5.27431e-06
-2.51159e-05
4.8009e-05
3.40398e-05
2.11626e-05
-2.89198e-05
-7.34263e-05
2.16749e-05
3.48731e-05
1.4212e-06
-4.63349e-05
1.81701e-06
-1.65714e-05
5.22444e-05
1.92712e-05
-4.25108e-05
-9.05945e-05
6.88434e-06
2.94279e-05
9.43244e-06
3.90756e-05
-4.01764e-05
2.79776e-05
-3.30706e-05
9.02761e-05
1.87056e-05
2.19358e-05
-2.38952e-05
3.89222e-05
7.95068e-05
-1.42993e-06
-1.07868e-05
-4.31226e-05
-5.63423e-05
3.65551e-05
5.6912e-06
-2.9766e-05
3.185e-05
-3.75104e-05
-1.97687e-05
6.36959e-05
5.06418e-05
-4.80588e-05
-4.18769e-05
-9.31276e-06
-2.63556e-05
-1.33659e-05
5.0945e-05
7.41067e-05
-1.38807e-05
-5.5213e-05
-6.02386e-05
2.25469e-05
4.01654e-05
-3.56472e-05
4.60857e-05
6.04029e-05
1.00421e-05
-2.72852e-05
-6.84024e-05
1.03846e-05
-3.90661e-05
-6.67318e-05
1.89327e-05
-3.8665e-05
-7.26086e-05
1.55348e-05
3.44656e-05
-9.18214e-06
-2.52388e-05
3.4999e-05
6.71942e-05
-7.81449e-06
-2.34849e-05
1.90872e-05
-3.4557e-05
-3.24659e-06
3.17626e-05
-4.33624e-05
-4.44566e-05
-1.29163e-05
6.19077e-05
-1.54718e-05
-1.92426e-05
-9.33418e-07
1.07803e-05
-2.67866e-05
6.4328e-05
6.2841e-07
3.16112e-05
-3.45439e-05
-2.02106e-05
3.29807e-05
-8.92975e-06
-5.33772e-05
-6.58383e-05
-1.97738e-05
2.38349e-06
3.65475e-05
8.3677e-06
-1.8779e-06
1.48285e-05
-2.75736e-05
4.24777e-05
2.79519e-05
9.69104e-05
6.65832e-05
1.94265e-05
1.45668e-05
-1.36639e-05
5.90174e-05
5.77692e-05
-3.53308e-05
8.6556e-05
-1.88483e-05
-2.10224e-05
-5.39371e-05
1.12336e-05
-1.22983e-05
7.03161e-05
-1.07873e-05
6.14929e-06
5.77932e-05
3.47516e-05
-3.56392e-05
-5.85604e-06
4.38269e-05
2.99953e-05
1.4888e-05
3.09432e-06
-6.29968e-05
1.44141e-05
-9.34469e-05
4.10876e-05
-3.34159e-05
-7.29718e-05
6.78678e-06
-4.31376e-05
3.26063e-05
-5.40692e-05
-3.51891e-05
-7.38096e-06
-3.4678e-05
7.78143e-06
5.28591e-05
1.6699e-05
-1.61538e-06
7.61889e-05
-2.89595e-06
5.27891e-05
3.30996e-05
2.69052e-05
3.20121e-05
-4.14012e-05
-7.91209e-05
6.70378e-06
-3.71058e-05
3.38303e-07
3.1288e-05
2.55895e-05
4.62431e-05
-7.34441e-06
3.85571e-05
-1.82485e-05
8.604e-05
-3.51758e-05
-2.42107e-05
-2.44785e-05
3.96878e-05
3.96366e-05
-5.5962e-06
-1.59822e-05
5.26488e-05
-3.12827e-05
-9.51311e-06
1.32086e-05
3.03076e-05
4.01443e-05
-6.21306e-05
6.55744e-06
-4.02806e-05
7.68161e-05
-2.30575e-05
2.42738e-06
-2.3623e-05
-7.65733e-06
1.05542e-06
-7.58457e-05
1.8905e-05
4.24921e-05
2.73343e-06
-4.68806e-05
-0.000111356
2.32972e-05
1.92825e-05
1.6694e-06
4.11416e-05
-1.26259e-05
3.11492e-06
-2.15394e-05
-7.41896e-05
3.57794e-05
1.81667e-05
-4.43206e-05
1.38062e-05
2.49413e-05
-1.40071e-05
-5.45263e-05
-1.59673e-05
4.8483e-05
-4.49969e-06
-0.000139603
5.79739e-05
3.08058e-05
0.000100899
-3.72751e-05
3.82724e-05
1.9673e-05
-2.19462e-05
-3.16997e-05
-3.15025e-05
5.79788e-05
8.84749e-05
-9.06747e-06
-5.99888e-05
9.21846e-06
8.46386e-06
-1.851e-08
-2.07848e-05
-3.90373e-05
0.000130274
-3.43218e-05
-4.70519e-05
5.37117e-05
-2.79676e-06
2.82307e-06
-3.79188e-05
-6.05412e-05
4.7542e-05
4.8436e-05
-1.7537e-05
3.74633e-05
-5.19101e-05
4.18177e-05
3.39493e-05
-6.99725e-05
2.7366e-05
3.88065e-05
1.67809e-05
-5.26785e-05
6.28689e-05
-2.19624e-05
-4.31014e-05
-7.40332e-06
-2.66795e-05
4.25463e-05
3.64985e-06
2.75732e-05
-4.73878e-05
-6.43707e-06
3.03097e-05
-2.263e-05
-8.19347e-05
-4.95822e-05
1.36233e-05
3.36367e-05
4.53521e-05
-3.78168e-05
6.72053e-05
-2.0206e-05
-6.2304e-05
4.74699e-05
4.62761e-05
1.24056e-05
3.82876e-05
2.15034e-05
5.87143e-05
-6.50003e-05
-4.25664e-05
-1.34117e-05
4.39063e-05
4.787e-05
-2.23204e-05
-6.05182e-05
1.98302e-06
-2.43739e-06
-3.00121e-05
1.48925e-05
2.92044e-05
7.28873e-05
7.06635e-05
-3.58251e-05
-0.000140628
2.58463e-05
1.20327e-06
-2.88255e-05
-4.697e-05
5.72427e-05
3.12584e-05
1.75566e-05
-0.000107817
-1.58472e-05
1.1332e-05
3.99522e-05
3.2814e-05
-4.30105e-05
3.20359e-05
3.74881e-05
-3.91937e-05
2.83309e-05
3.71942e-05
-1.37141e-05
3.56365e-05
-5.44155e-05
8.30444e-05
3.03242e-05
-1.9427e-05
-2.67288e-05
6.84285e-05
4.12184e-05
-2.91598e-05
3.35346e-05
3.9214e-05
3.68368e-05
-3.48369e-05
-2.81513e-05
1.41672e-05
3.52948e-05
-7.15661e-05
-2.16158e-05
4.60055e-05
3.6499e-05
2.3186e-05
-3.12361e-05
-7.13485e-05
2.25481e-05
-3.52723e-05
7.69859e-05
-4.1643e-05
-1.37861e-05
7.45142e-05
-5.4067e-05
4.00422e-06
-1.77849e-05
-5.5805e-05
2.01227e-05
5.95953e-06
5.0582e-05
6.31158e-05
-6.58252e-05
8.14188e-05
-4.32241e-05
-2.44335e-05
2.67203e-05
4.39421e-06
9.56771e-06
7.65524e-06
4.39119e-06
-4.22164e-05
2.17031e-05
1.01274e-05
-1.56353e-05
-7.88148e-05
-2.79716e-05
-7.33091e-06
2.62833e-05
6.22869e-06
2.38393e-05
-8.04104e-06
5.26161e-05
3.00964e-05
-3.07953e-05
-8.6859e-05
1.14746e-05
3.87327e-05
1.1161e-05
-2.8562e-05
-9.1251e-06
-2.48151e-06
2.21184e-05
-3.22983e-06
2.53441e-05
2.25466e-05
3.20968e-05
-2.08738e-05
-3.06219e-06
6.05523e-06
-3.41376e-06
3.49665e-05
-2.44871e-05
5.34741e-05
1.9663e-05
1.27892e-05
-1.15688e-05
2.9253e-05
2.87057e-06
3.39586e-05
-1.87167e-05
-2.88687e-06
-6.90415e-05
2.46685e-05
-5.03892e-06
-1.26836e-05
2.05977e-05
-2.63394e-05
-2.66207e-06
-3.02469e-05
-7.38936e-05
-1.1655e-05
0.000124286
-9.67176e-05
2.30561e-05
4.08881e-05
1.1208e-05
1.89696e-05
2.29746e-05
-6.50403e-05
-1.85563e-05
-3.58934e-05
9.8875e-06
-2.25083e-05
-0.00011462
5.06443e-05
-0.000120175
-5.21552e-05
0.000129995
-2.85545e-05
-3.29316e-05
1.39812e-05
-3.08792e-06
-4.5842e-06
-6.87172e-05
5.01284e-07
2.5406e-05
-3.06816e-05
-4.83696e-05
-2.09834e-05
3.77458e-05
3.99081e-05
1.09908e-05
-3.37756e-05
2.43068e-05
4.91928e-05
4.5861e-05
-7.13922e-05
-6.57421e-05
-4.48683e-05
5.14658e-05
2.45112e-06
-1.54669e-06
-6.96711e-05
3.42377e-07
-1.04236e-05
6.89435e-06
-2.29038e-05
-2.35473e-06
-3.06219e-05
3.27412e-05
-3.2268e-06
-1.0337e-05
-2.52564e-05
2.84619e-05
9.52232e-05
-3.0262e-05
3.21713e-05
4.43811e-05
-4.54088e-05
-0.000101101
-3.30771e-05
0.00011101
6.25444e-05
-5.28278e-05
-0.000107186
-1.18127e-05
6.85669e-05
3.46114e-05
-5.40467e-05
-5.21375e-05
4.75175e-05
-4.06366e-05
-0.000119436
6.12033e-05
-1.81564e-05
-3.11728e-05
0.000105493
-4.54731e-05
-9.29442e-05
-5.38453e-05
9.50519e-06
-5.54984e-05
1.67228e-05
4.28176e-06
-7.23696e-05
6.52473e-06
4.5925e-05
6.77735e-06
-2.06684e-06
5.32221e-05
2.83384e-05
-3.75983e-05
-4.85515e-05
0.000104193
-1.62807e-05
-5.72763e-06
-2.96999e-05
-2.67255e-06
-4.58119e-05
8.22777e-06
-1.31109e-05
-4.38883e-05
-3.3671e-05
-5.49542e-05
4.80604e-05
-3.43905e-05
5.50932e-05
-3.26777e-05
-2.49944e-05
-9.60962e-06
3.26963e-05
-4.3438e-05
8.21741e-05
3.9906e-06
1.01069e-05
-2.64167e-05
-1.68581e-06
5.18312e-05
-5.0524e-05
7.65341e-05
-2.69972e-05
-2.84483e-05
5.25301e-06
1.91287e-05
5.75269e-05
-1.5507e-05
1.41482e-05
1.54797e-05
9.67543e-05
-2.60588e-05
2.79676e-06
-6.86485e-05
-4.36429e-06
5.35557e-06
-6.23637e-07
-1.12271e-05
2.76114e-05
-7.06452e-05
2.38861e-05
3.64643e-05
-5.86081e-06
-1.47325e-05
5.85357e-05
-1.46404e-06
5.05475e-07
-8.36328e-06
-6.68821e-05
-7.4585e-06
-5.66775e-05
5.49138e-05
-1.55685e-05
-6.51164e-05
1.93967e-05
-2.50087e-05
1.49554e-05
4.44495e-05
-8.87841e-06
-5.64916e-05
-7.07046e-05
-8.34197e-06
-2.96301e-05
-2.15287e-06
-1.83216e-05
-1.8928e-06
-0.000102778
8.74815e-06
3.24823e-05
3.0796e-05
-0.000103661
-3.61557e-05
2.02425e-05
8.39111e-05
4.75184e-06
-1.31459e-05
3.19694e-05
7.14441e-07
-3.71368e-05
-7.51377e-05
-6.92115e-05
-2.21259e-06
-7.097e-05
1.36718e-06
-4.37519e-05
5.21016e-05
-3.20333e-05
-2.11229e-05
9.38214e-06
-1.06043e-06
4.85103e-06
-2.59299e-05
5.72978e-05
-2.0384e-05
4.02208e-05
1.71225e-05
-4.36116e-05
4.79142e-06
-4.09905e-05
-3.49246e-07
2.30945e-05
-3.31625e-05
1.34484e-05
1.23584e-05
-2.61035e-05
-4.63813e-05
1.17683e-05
-4.40204e-05
0.000100773
4.16167e-05
5.95758e-05
5.72763e-06
3.63495e-06
3.72173e-05
-2.83867e-05
-2.6533e-05
-3.87036e-05
-3.32439e-05
-2.94507e-06
-4.83461e-06
-7.4239e-05
-9.21182e-05
-4.12923e-05
9.3604e-05
1.79686e-05
2.46144e-05
5.07901e-05
-3.90918e-05
-4.86936e-05
-6.07775e-05
2.91872e-05
-7.01522e-05
2.39771e-05
5.71002e-05
1.43809e-05
-8.54447e-05
6.48922e-05
5.64172e-06
1.15013e-05
-0.000120717
5.33739e-05
7.36078e-05
5.39143e-06
1.38737e-05
1.18414e-05
-9.65106e-06
3.66955e-05
-3.03435e-05
4.7182e-05
6.17248e-05
-4.68106e-06
-4.04329e-05
-2.98402e-05
4.83368e-06
-1.19209e-06
4.36946e-05
-1.84984e-06
-1.13769e-05
-1.70611e-05
7.82479e-05
-4.5835e-06
1.7914e-05
-3.62858e-05
-7.78635e-05
7.38346e-05
-9.19305e-05
-5.20749e-06
2.09286e-05
2.30572e-06
7.0589e-05
3.83815e-05
7.42078e-06
5.50147e-05
-1.01441e-05
4.60942e-05
-1.68381e-05
-5.88741e-05
-4.91897e-05
5.14213e-05
5.45883e-05
-1.9853e-05
5.81015e-05
3.02007e-05
1.388e-05
2.24963e-05
6.25567e-05
6.90157e-06
-8.80086e-05
-1.34252e-05
-5.00772e-06
4.87e-05
5.9925e-05
6.30915e-05
1.42644e-06
2.1443e-05
-2.66378e-05
-9.90368e-06
-6.22042e-05
-1.60279e-05
3.25944e-05
-3.85358e-05
-1.90414e-05
5.31547e-05
-2.28167e-05
1.54097e-05
-4.23557e-05
-5.64614e-07
-5.11481e-05
-1.07908e-05
-0.000114606
2.06346e-05
1.91702e-05
7.28538e-05
2.73269e-05
-4.94906e-05
5.0578e-05
5.27872e-05
6.41993e-05
-7.99017e-06
4.43971e-05
-4.86515e-05
-2.58863e-05
-3.12887e-05
9.76647e-05
-4.46028e-05
-4.87096e-05
2.7045e-05
-5.04587e-05
1.36551e-05
-9.01836e-05
-0.000131355
6.04796e-05
5.67489e-05
-1.70094e-05
2.47728e-05
-9.10868e-06
5.167e-05
-8.06586e-05
3.8292e-05
3.7834e-05
1.59073e-05
-7.97573e-06
-6.65511e-06
3.57421e-05
3.13768e-05
-9.3261e-05
-4.72955e-05
-9.38082e-05
-4.97693e-05
6.84744e-05
-3.54394e-05
9.14501e-06
-3.66222e-05
3.87211e-05
1.69342e-05
4.4761e-05
-5.40492e-05
2.94943e-05
6.61318e-05
1.22407e-05
-6.6429e-05
1.13319e-06
1.48162e-05
-1.36934e-05
6.08948e-05
-9.09204e-07
7.89303e-05
9.09704e-06
5.26162e-05
-9.66361e-05
3.41136e-05
6.60552e-06
-1.27822e-05
-4.43457e-05
-2.06705e-05
3.15078e-06
-9.30391e-07
-6.30612e-05
-0.000100799
-4.15874e-05
-9.15083e-05
-4.81867e-05
5.62923e-05
-1.52456e-05
-5.2291e-05
-2.41196e-05
-1.08293e-05
-4.5769e-05
-4.23092e-05
1.19057e-05
2.8361e-05
-1.41368e-05
-5.28242e-05
-6.13481e-05
1.77321e-05
1.0733e-05
-2.08277e-05
5.96305e-05
1.79058e-06
2.51202e-05
-2.36358e-05
5.88674e-05
3.18961e-05
4.76108e-05
-7.31896e-05
7.22468e-05
-0.000100922
-6.24137e-06
6.49318e-05
8.48947e-06
3.23064e-05
-3.30666e-06
-4.32204e-05
2.37837e-06
1.99965e-05
-1.27289e-05
9.59355e-06
3.61401e-05
2.75427e-05
6.92136e-05
-2.72435e-06
-6.32238e-05
-6.14533e-06
-7.61088e-06
-1.02115e-05
4.45032e-05
5.20109e-06
2.67313e-05
-6.62985e-06
-4.79817e-06
-2.94803e-05
1.43548e-05
5.68992e-06
6.79195e-05
9.01194e-06
3.43914e-05
1.84247e-05
1.29041e-05
-4.46525e-05
3.45937e-05
3.36547e-05
1.93832e-06
-1.88097e-05
4.4687e-05
-5.23892e-05
6.75365e-05
7.74652e-05
6.37153e-06
8.13843e-05
-3.18108e-05
2.20672e-05
-1.73561e-05
-2.87808e-05
-6.86571e-05
1.19235e-05
2.47908e-05
1.23705e-05
-3.48678e-05
2.16783e-05
-2.20754e-05
-3.52529e-06
1.23347e-05
1.70909e-06
2.97127e-05
-6.88566e-05
-1.33737e-05
9.18959e-05
-3.43516e-05
1.47283e-05
-1.23631e-05
4.94566e-05
2.42073e-05
-4.44684e-05
5.05933e-05
0.000106778
9.66929e-05
6.52504e-05
8.90461e-07
-7.20657e-06
-1.14567e-05
6.66908e-05
-5.44812e-06
4.01796e-05
-2.33981e-05
4.17556e-05
-3.41279e-05
-2.13974e-05
6.28142e-06
-2.62638e-05
3.58209e-05
-8.9314e-05
4.69469e-05
-3.57552e-05
3.30253e-05
2.34644e-05
-9.97119e-05
2.21338e-05
3.57017e-05
-1.87461e-05
2.13255e-05
-6.78235e-05
2.71617e-05
-5.16978e-05
5.68142e-05
4.88437e-05
-1.74806e-05
3.8041e-05
4.54166e-05
1.17876e-05
-8.37981e-06
2.07492e-05
-2.0564e-05
5.28255e-05
-7.57053e-05
-4.26262e-05
-7.6727e-06
2.04986e-05
-1.54356e-05
-3.12327e-05
1.17394e-05
6.21654e-05
4.88083e-05
4.33601e-06
-0.000127571
-5.02242e-05
-6.86677e-05
-6.60993e-05
3.09134e-05
7.61505e-05
-7.01359e-05
-7.02986e-06
9.28505e-06
4.82403e-05
3.84031e-06
8.47317e-06
-6.75757e-05
-1.85828e-05
1.21742e-05
-8.66828e-06
-3.19526e-05
-1.42835e-05
3.18396e-06
7.33044e-06
1.82405e-05
2.56512e-05
-6.78839e-05
-4.71447e-06
3.49287e-05
-5.05329e-05
1.07938e-05
-1.50148e-05
-1.63047e-05
-2.95392e-05
9.53885e-05
2.63905e-05
-1.76688e-05
-2.15019e-05
-1.27989e-05
8.03324e-06
-1.35812e-05
2.63905e-05
-7.18527e-06
-1.90845e-05
2.17275e-05
5.39329e-05
-9.03434e-05
5.79043e-05
-1.44781e-05
-1.46059e-05
-3.83229e-05
-4.5439e-05
2.61618e-05
5.7482e-05
2.07165e-05
1.80581e-05
2.61941e-05
-7.22194e-06
-2.65968e-05
2.38707e-05
-3.81791e-05
-3.29989e-05
2.86612e-05
4.19572e-06
5.34143e-05
-1.29023e-05
-4.54637e-06
9.10494e-05
1.6332e-05
1.69139e-05
-4.63276e-05
3.55742e-05
-3.91718e-05
2.29459e-05
1.72227e-05
3.08605e-06
6.80584e-05
6.72808e-05
-1.70235e-05
-7.54744e-06
4.55868e-05
-1.23878e-05
-6.61239e-06
0.000122597
3.2628e-05
1.82127e-05
2.49492e-05
-5.22535e-05
-2.22391e-05
-5.70165e-05
1.30432e-06
7.69028e-06
2.41781e-05
1.07717e-05
-5.20679e-05
1.76707e-05
6.44932e-05
-6.11887e-05
5.44074e-05
-4.49317e-05
-7.05203e-05
6.23055e-06
3.27922e-05
4.70879e-05
1.32772e-06
1.32956e-05
-7.78603e-05
-2.81838e-05
-6.89249e-06
0.000112601
3.68478e-05
-3.34255e-05
4.85627e-05
3.18349e-05
1.14886e-05
6.94899e-05
0.00013327
-7.38585e-05
-4.20366e-05
-1.68971e-05
2.0411e-05
8.13277e-06
-1.95545e-05
3.47549e-05
5.05908e-05
-6.30394e-05
-4.22689e-05
1.79629e-05
5.70345e-05
-6.66711e-07
2.83977e-05
-3.47798e-05
-8.23162e-05
-3.16933e-05
-5.51026e-05
-1.69484e-05
6.43994e-05
-5.5777e-05
5.25209e-05
-0.000112341
-7.1065e-05
-1.52241e-05
-1.60269e-05
-3.59302e-05
5.28329e-05
4.40277e-05
-4.75475e-06
-6.05785e-05
-2.03254e-05
1.72133e-05
2.4091e-05
-2.15004e-05
-3.80279e-05
1.84209e-05
-5.22969e-05
-1.48038e-05
-9.04261e-05
-1.86136e-05
-1.40978e-05
0.000121307
-2.54702e-05
5.25207e-05
3.79472e-05
3.11935e-05
-3.85311e-05
-5.10248e-06
-4.49659e-05
2.62952e-05
1.12432e-05
-1.86054e-05
1.74425e-05
-3.76215e-05
8.71113e-06
-3.17955e-05
7.14654e-05
-7.47012e-05
0.000101809
5.19649e-05
3.18052e-05
1.9415e-05
4.63661e-05
-3.00468e-06
1.62395e-05
7.9999e-05
3.67663e-06
-1.37994e-05
-5.21089e-05
-5.62182e-05
2.68228e-05
-3.78024e-05
-4.78226e-05
2.88634e-05
-2.68993e-05
-1.16543e-05
-5.028e-05
3.10768e-05
-2.00592e-05
3.8109e-05
-8.71739e-05
-4.69048e-05
1.67188e-05
4.92434e-05
9.12813e-06
1.42632e-06
-6.69417e-05
-7.27302e-05
-1.43612e-05
-9.74443e-06
-1.56979e-05
2.67377e-05
-9.21224e-05
-5.88646e-05
-1.25878e-05
5.10603e-05
-8.97493e-05
7.86016e-05
1.30896e-05
1.51681e-05
-0.000114672
-4.1971e-05
1.06479e-05
8.84155e-05
-6.75395e-06
-6.9309e-06
1.0808e-05
-9.15204e-05
-1.49587e-05
1.07783e-05
5.18092e-05
-3.28288e-05
4.25937e-05
9.43139e-06
7.85687e-07
4.03613e-05
-3.83542e-06
2.66726e-05
-2.21868e-05
6.11064e-07
2.16393e-06
1.83089e-05
-2.01635e-05
-7.52344e-05
-8.20158e-05
-4.08835e-05
3.06881e-05
3.11451e-05
-1.76034e-05
-1.14894e-05
3.87499e-05
9.27411e-06
1.1754e-05
-4.44876e-05
-5.27482e-05
-4.26522e-05
9.60717e-05
-3.91067e-05
-6.17568e-05
-4.51253e-05
4.72018e-06
-4.15783e-05
-1.74763e-06
2.57662e-05
4.81143e-05
-3.50765e-05
2.89143e-05
3.42638e-05
2.19488e-05
-2.03147e-05
-2.84293e-05
2.95845e-05
6.2325e-05
1.81496e-05
-1.77096e-05
-4.22895e-05
-3.51807e-06
6.32221e-05
3.54706e-06
7.63207e-06
-5.29364e-06
1.01698e-05
2.7498e-05
2.91362e-05
-2.60756e-05
-5.97402e-05
8.67877e-05
3.29308e-05
-1.45729e-05
-1.42371e-05
5.72901e-05
3.84287e-06
9.81889e-05
0.000121367
-2.85935e-05
2.49977e-05
7.87177e-06
-1.86716e-05
-1.70148e-05
-7.32372e-05
0.00011208
-1.25971e-05
-6.01785e-05
7.86257e-06
3.08844e-05
9.78319e-06
7.84069e-06
1.71359e-05
4.90109e-08
-2.67223e-05
-2.5681e-05
-4.13365e-05
-4.55831e-05
-1.76243e-05
-7.76583e-06
-4.82695e-05
7.13973e-05
1.64242e-05
3.01738e-05
-3.196e-05
1.3984e-05
-1.39399e-05
-1.55893e-05
4.47629e-06
-1.65857e-05
8.27655e-05
5.56014e-05
5.6728e-06
3.54117e-05
2.86265e-06
-1.63056e-05
2.07494e-05
9.63197e-06
-1.45012e-05
-4.88879e-05
-4.07485e-05
-9.69227e-06
4.12584e-05
-2.15805e-05
-3.41529e-05
5.64968e-05
-1.37313e-05
-5.04198e-05
3.84744e-05
-2.33628e-05
-1.19582e-06
-5.9447e-05
5.95266e-06
6.40072e-05
-7.39722e-05
-2.23713e-05
-4.28909e-06
-7.43158e-05
-1.58097e-05
5.60064e-05
-2.41018e-05
5.20148e-05
4.58728e-05
-3.16426e-05
0.000122278
2.89963e-05
1.20706e-05
-2.74092e-05
-3.44673e-05
-3.20195e-05
5.98461e-05
4.27901e-05
-2.54271e-05
-1.62858e-05
4.25267e-05
4.55981e-05
-7.0805e-05
-4.53839e-05
-1.75913e-05
6.00134e-05
3.70808e-05
4.36973e-05
-7.64558e-06
2.17552e-05
1.48431e-05
1.47808e-05
3.49523e-05
1.44988e-05
-7.17351e-05
5.90798e-05
3.9353e-05
-1.62121e-05
4.74526e-05
-1.84563e-05
-3.84232e-05
8.46095e-05
5.78987e-05
5.29931e-05
-2.8295e-05
-1.40264e-05
-3.38233e-06
6.56861e-05
1.70164e-05
1.81664e-05
-1.45177e-05
-3.22158e-05
8.30216e-06
5.7065e-05
3.72087e-05
6.89618e-05
3.9286e-05
3.07861e-05
-1.59347e-05
4.17499e-05
8.47271e-06
-3.21823e-05
-1.07549e-05
-1.45925e-05
5.39321e-05
1.21886e-05
2.11237e-05
-2.64749e-05
1.12986e-05
-2.39073e-05
-1.44509e-05
1.09982e-05
-7.73568e-06
4.69002e-06
1.68593e-05
6.67061e-05
1.57992e-05
-0.000107579
-8.2499e-05
6.52357e-06
-5.85072e-05
5.17322e-05
1.84866e-05
1.66771e-05
-7.07679e-05
5.68538e-06
-1.86227e-05
-4.33438e-05
5.83276e-05
-4.15359e-05
-7.76735e-05
-1.33212e-05
-3.74751e-05
-1.10001e-06
5.06309e-05
3.43451e-05
5.21401e-05
2.95315e-05
4.71442e-05
-2.02375e-05
0.000134812
5.5166e-05
-3.8271e-05
-1.12215e-05
0.000111733
1.12818e-06
-1.38341e-05
-2.07326e-05
-1.05342e-05
5.75115e-06
2.51085e-05
-6.47181e-05
1.22248e-06
0.00011825
2.02316e-05
-6.96788e-05
-8.34584e-05
9.06892e-05
4.29545e-05
-6.09942e-05
-2.33646e-06
4.5246e-06
-2.48619e-05
-7.49837e-05
-6.30133e-06
3.39793e-05
6.28864e-05
-2.65846e-06
-2.97545e-05
-6.67734e-05
-1.08316e-05
7.42322e-06
3.03184e-05
-1.26918e-05
1.26479e-05
-3.24744e-05
-1.54034e-05
4.65964e-05
-6.06407e-07
-7.33238e-05
-3.61173e-05
3.19345e-05
5.07119e-05
5.5205e-05
-3.86604e-05
-2.71015e-05
-1.73203e-06
4.00434e-05
-1.28828e-05
1.15238e-05
2.75385e-05
1.51002e-05
2.02362e-05
3.27821e-05
-0.000103584
-2.37206e-05
5.6299e-05
-3.56054e-05
-8.56415e-05
0.000101618
-2.90701e-05
2.15787e-05
-5.19505e-05
6.29388e-06
-5.95588e-05
3.80189e-06
-4.01161e-05
2.21792e-05
-9.73779e-06
6.35824e-05
-2.76126e-05
-2.54392e-05
9.06729e-05
-5.5589e-05
-3.51438e-05
1.47809e-05
-2.3094e-05
3.46848e-05
-4.1014e-05
-1.09314e-05
2.98407e-05
3.45645e-05
-4.7846e-05
-5.78746e-05
-3.72987e-05
3.58616e-05
-1.02359e-05
-1.76757e-05
3.83472e-05
4.55114e-06
-3.07258e-05
-6.31752e-05
6.19097e-06
-5.68884e-05
0.000120349
-0.000117728
-6.80871e-05
1.01876e-05
-1.02161e-05
2.8216e-05
-1.96022e-05
-6.25593e-06
3.50749e-05
9.93127e-06
-5.96482e-05
5.40577e-05
-2.97576e-05
-7.2585e-07
-9.39111e-06
-2.64804e-05
5.89006e-05
9.35849e-05
7.95012e-05
-1.68917e-05
-6.82933e-05
-7.77036e-05
4.75618e-05
-1.31759e-06
1.1745e-05
5.16309e-05
-6.3151e-05
2.21429e-05
3.45723e-05
-3.89622e-05
4.92727e-05
9.85339e-06
-2.73694e-05
-7.18011e-05
-2.20793e-06
9.41276e-06
5.68598e-05
-2.01403e-05
-8.62184e-06
7.08969e-06
9.57632e-07
-2.91984e-05
-3.67722e-05
9.86853e-07
-7.08317e-06
-7.77076e-05
4.07123e-05
2.28041e-05
-2.3353e-05
-2.82736e-05
6.35604e-06
-3.10611e-05
-2.37784e-05
5.87654e-05
3.77758e-05
-8.88545e-05
1.88742e-05
2.8215e-05
2.42067e-05
-1.97265e-05
3.13716e-05
2.67724e-05
-2.78915e-05
-1.14415e-05
4.39797e-05
-1.84719e-05
6.2898e-06
-9.41614e-06
3.67075e-05
-1.65389e-05
-2.21912e-05
-3.26346e-05
2.11537e-05
-9.05291e-05
-2.25267e-05
7.17759e-06
-1.67802e-05
-5.12953e-05
-4.15263e-05
3.02581e-05
1.87581e-05
1.34518e-05
6.79975e-05
0.000103677
-2.68701e-05
-5.62215e-05
-7.36816e-06
-8.72882e-06
-8.22125e-06
-0.000119192
3.07657e-05
9.97079e-05
7.93552e-05
2.3524e-05
2.89525e-06
3.23568e-05
6.61891e-06
-1.27403e-05
-1.1237e-05
3.50212e-06
6.08941e-05
-6.73451e-06
5.99329e-05
-9.10857e-06
-4.93439e-05
-1.25009e-05
-1.79212e-05
3.41778e-05
-3.37972e-05
7.39552e-06
5.94538e-05
0.000102923
1.58965e-05
2.07452e-06
6.60839e-05
-5.49526e-05
-6.42203e-05
4.83601e-06
5.86051e-05
-3.53624e-05
-0.000113618
-3.21857e-05
8.25257e-06
3.03726e-05
4.09456e-06
1.25883e-05
-2.57912e-05
4.03053e-06
-1.99424e-05
-0.000115459
-8.30344e-06
2.34323e-05
1.67674e-05
-9.89973e-06
-1.77938e-05
3.41062e-05
5.38381e-05
-8.89529e-07
-3.2686e-05
-1.4483e-05
1.08397e-05
2.86296e-05
1.41955e-05
-1.13219e-05
4.3634e-05
-9.69972e-06
4.36602e-05
-6.26035e-06
-6.49595e-05
8.33402e-05
7.37351e-06
-2.33592e-05
-5.2996e-05
8.21939e-06
-7.6708e-05
-5.47339e-05
1.6998e-05
-2.35282e-05
6.93034e-05
-5.89247e-05
-1.5897e-05
-3.79654e-06
-4.36553e-05
1.74996e-06
6.90832e-06
-1.56342e-05
-1.26812e-05
-6.31344e-06
-2.87475e-05
6.35838e-05
-1.27362e-05
2.98866e-05
-1.94591e-05
0.000106661
-6.87316e-05
2.64263e-06
7.9783e-05
-7.28979e-05
-2.11628e-05
-1.82923e-06
-5.65487e-06
-3.07193e-05
-1.66125e-07
6.13109e-05
-4.5361e-05
-3.93682e-06
2.74235e-05
5.10009e-05
6.30191e-06
2.1523e-05
-5.93152e-05
-4.52383e-05
-4.5692e-05
-4.39745e-05
-2.38915e-05
-5.03433e-05
-2.24269e-05
-6.28913e-05
1.1195e-05
0.000117077
1.08847e-05
1.60362e-06
7.11624e-06
-1.24838e-05
-9.79606e-05
1.1728e-05
-2.43353e-05
-6.52878e-05
-4.57339e-05
9.77492e-05
-2.84509e-05
2.46854e-05
2.8971e-05
-3.39512e-05
9.1926e-05
-5.06381e-05
-3.13992e-05
4.17815e-07
2.26258e-05
5.23939e-05
-4.63509e-05
3.01935e-06
-7.25874e-05
3.62428e-05
4.53796e-05
5.10277e-05
4.96118e-05
1.14617e-05
6.31437e-06
1.38575e-05
1.41456e-06
1.35627e-05
-5.94303e-05
-5.26096e-05
-3.14451e-05
3.68988e-05
-1.13039e-06
4.39398e-06
1.65978e-05
1.011e-05
-4.56735e-05
-5.67071e-05
-2.16058e-05
3.75416e-06
3.02104e-05
2.47175e-05
-3.70552e-05
-4.68157e-05
-8.03266e-05
-3.89203e-05
8.46453e-05
4.35197e-05
1.98978e-05
-8.17515e-06
-6.95791e-06
-5.38763e-05
3.58439e-05
-6.18509e-05
7.90432e-05
-1.59482e-05
-3.99172e-05
-6.26176e-05
3.51213e-05
5.15332e-05
1.97021e-06
-3.47092e-06
-9.94955e-06
5.45719e-05
-4.35942e-05
-3.2003e-05
3.58506e-05
-2.33701e-05
-7.194e-06
3.1627e-05
-2.36792e-05
4.79082e-05
6.11598e-05
-1.50184e-05
5.8336e-05
-1.60111e-05
-5.55504e-05
-4.1118e-05
3.92956e-05
8.73666e-05
-9.01881e-06
2.39064e-05
5.31239e-05
-2.11783e-06
3.75923e-05
-6.11143e-05
-5.37826e-05
4.75651e-05
-2.97431e-05
-7.41596e-05
-1.30138e-05
3.82843e-06
-4.959e-05
-1.00627e-05
1.48063e-05
3.3679e-06
-4.77559e-05
-3.2661e-05
4.77978e-06
4.40959e-05
4.04313e-05
-4.65774e-05
-4.65794e-05
9.95398e-06
6.5809e-05
1.77752e-05
-1.76015e-05
-0.000102062
4.74707e-05
-2.01666e-05
-7.77515e-06
-8.79937e-06
4.50334e-05
-5.59189e-06
-5.70059e-05
-1.93106e-05
-3.39661e-05
4.75904e-05
2.1651e-05
-2.22092e-05
-2.47789e-05
-2.54153e-05
-5.89096e-06
-1.15659e-05
-4.13184e-05
-4.02358e-05
1.2056e-06
-4.48256e-05
2.04253e-05
3.38082e-06
-2.82915e-05
3.01641e-05
9.34827e-06
-6.71304e-05
-4.0574e-05
7.09334e-05
-3.39558e-05
-2.67511e-05
2.17732e-05
1.56364e-05
1.44398e-05
-8.9017e-06
-1.19938e-05
1.44325e-05
8.70284e-05
-9.69972e-07
1.24228e-05
-5.59281e-05
-1.92776e-05
3.9081e-05
3.06999e-06
-4.05499e-05
7.56618e-06
6.72853e-05
3.94991e-05
-7.47537e-05
-3.48643e-05
2.46887e-05
-5.16154e-05
3.76685e-06
-4.08548e-05
-1.83193e-05
8.32829e-05
-3.53502e-05
-3.56361e-05
-9.10228e-06
-2.37037e-05
-7.61583e-05
-4.31736e-05
-3.44524e-05
3.03321e-05
-5.932e-05
-4.43418e-05
-1.38485e-05
2.80144e-05
4.4345e-05
7.11204e-06
-4.18629e-07
-3.37957e-05
5.63177e-05
4.62115e-05
-7.5162e-05
0.000106831
-4.8546e-05
-1.38166e-05
-8.4145e-07
-1.47608e-05
-6.57005e-05
-1.55211e-05