# vtk DataFile Version 1.0
Net Charge Density
ASCII
DATASET STRUCTURED_POINTS
DIMENSIONS 256 128 1
ORIGIN 0 0 0
SPACING 0.15625 0.15625 1
POINT_DATA 32768
SCALARS rhonet float
LOOKUP_TABLE default
-3.8963e-06
-9.5128e-05
0.000144791
9.63217e-05
3.56843e-05
0.000120451
-0.000118445
9.18584e-05
0.000154216
2.28999e-05
-3.75607e-05
0.000108726
0.000103821
7.94458e-05
0.000109346
4.99603e-05
8.77436e-05
0.000140236
4.0588e-05
-6.79099e-05
-6.40727e-06
0.000141859
0.000144767
4.77826e-05
3.72677e-05
2.0743e-05
7.7422e-05
9.0589e-05
-1.35219e-05
-7.27427e-05
5.23026e-05
3.97239e-05
4.36692e-05
6.90082e-05
1.24413e-05
0.000171713
1.68071e-05
7.28723e-05
7.73579e-05
-5.53089e-06
2.2932e-05
6.8323e-06
0.000136404
9.39809e-05
2.09386e-05
1.86828e-05
-3.16135e-05
6.95544e-05
0.000116214
7.88723e-05
-1.20078e-05
2.49784e-05
8.34428e-05
0.000148995
3.55955e-05
1.75046e-05
0.000151011
-5.17472e-05
5.67851e-06
7.16955e-05
5.02797e-05
6.06022e-05
7.16792e-06
8.01804e-05
8.22488e-05
-8.03833e-05
4.41822e-05
0.000136175
4.09958e-05
4.82837e-05
7.92335e-05
3.6711e-05
-2.69156e-05
4.96672e-05
-1.14902e-07
5.11551e-05
4.2086e-05
-3.83083e-05
9.21621e-05
0.000106615
8.71841e-05
2.54081e-05
7.49616e-05
0.000101106
4.54688e-05
-4.48013e-06
-1.66912e-05
6.70487e-05
0.000119669
-2.3487e-05
9.0003e-05
-1.47952e-05
-3.90525e-05
-6.21425e-06
-8.99174e-05
5.22722e-05
0.000157961
2.40976e-05
9.16885e-05
-2.49447e-05
0.000157724
9.09192e-05
-3.16906e-06
9.47255e-05
3.90385e-05
0.00013097
-2.58442e-07
-6.85494e-05
2.66242e-06
7.39999e-05
0.00013342
5.79276e-05
2.02986e-05
3.31157e-05
8.04213e-05
4.3659e-05
1.22662e-05
7.49694e-05
5.09605e-05
4.32273e-05
-3.98805e-05
-3.45635e-05
4.04445e-05
2.44897e-05
0.00011572
6.60869e-05
1.8255e-05
8.13097e-05
1.99641e-05
-1.88097e-05
0.000119796
9.26163e-05
-2.24425e-06
3.77486e-05
2.03243e-05
6.79691e-06
4.46092e-05
-3.19162e-05
4.68967e-05
-1.15026e-05
-4.98404e-05
2.32954e-05
2.09626e-05
0.000160761
9.88226e-05
2.06451e-06
0.000137836
1.15244e-05
-3.11246e-05
0.000132419
1.78269e-05
2.91317e-05
0.000108428
-8.34535e-06
3.4504e-05
4.32299e-05
5.74614e-06
3.4271e-05
-5.27641e-06
1.75423e-05
7.67775e-05
2.50087e-05
0.000112709
-2.20693e-05
3.25857e-05
2.55229e-05
5.84619e-05
-6.12722e-05
0.000105448
0.000137295
2.50288e-05
4.32236e-05
7.45822e-05
0.000111579
-2.02684e-05
-8.13347e-06
8.72931e-05
-8.23225e-05
1.15581e-05
3.31805e-05
8.87691e-05
-7.06005e-05
-3.18111e-05
5.65406e-06
1.04988e-05
7.98537e-05
4.14201e-05
7.20918e-05
0.000102554
7.46853e-05
2.4884e-05
0.000198125
8.16126e-05
-6.56995e-05
6.242e-05
0.000201229
4.75222e-05
8.32757e-05
7.86667e-05
-1.63089e-05
5.95986e-05
0.00014917
4.39014e-05
3.83354e-05
-1.00761e-05
6.97711e-05
-5.98879e-05
5.34233e-05
6.86808e-05
8.57909e-05
6.81023e-05
0.000137439
0.000106096
-2.40523e-05
0.00011108
-0.00013128
0.000102691
9.90948e-05
-5.28726e-05
-3.79208e-05
8.69745e-05
0.000114878
0.000176991
3.40519e-05
7.95292e-05
5.67447e-05
-3.69136e-05
-1.51399e-05
8.69035e-05
6.86068e-05
6.22869e-06
4.16543e-05
2.36378e-05
2.60696e-05
0.000121307
-3.557e-05
-2.05768e-05
2.75013e-05
5.94514e-05
8.97935e-06
1.84993e-05
8.66945e-05
-5.82667e-05
-3.07336e-07
2.65904e-05
-1.44099e-05
-2.21955e-05
-3.95466e-05
0.000128655
-4.29619e-06
2.10486e-05
-3.85132e-05
0.000102294
2.14381e-05
2.40533e-05
4.18612e-05
-0.0001049
2.47047e-05
-6.30284e-05
-2.51193e-05
-2.3887e-05
5.12265e-05
-2.6045e-05
-7.57643e-05
4.98927e-05
-6.60459e-05
-4.29e-05
2.33413e-05
-5.99086e-05
-8.02728e-05
3.00258e-06
-4.24259e-05
4.66197e-06
1.08914e-05
-2.15746e-05
-4.06057e-06
-5.82074e-05
-6.7494e-05
-0.000106139
-1.79202e-05
-2.00458e-05
-5.72717e-05
-2.5276e-05
7.73021e-06
-3.07409e-05
-8.53873e-05
-3.53892e-05
-8.36141e-06
2.7442e-05
-7.95684e-05
-6.67486e-05
2.31336e-05
-0.000103179
-3.37886e-05
1.98336e-05
-8.20332e-05
-5.15869e-05
-4.3841e-05
8.67294e-06
3.55997e-05
-2.47131e-05
4.87408e-06
-0.000112385
-3.15164e-05
3.88797e-05
-3.39423e-05
-6.56135e-05
-4.11929e-05
-3.17381e-05
2.98237e-05
-2.85318e-05
-3.5456e-05
-2.34863e-05
-0.00011611
1.48105e-05
-3.37932e-05
4.56301e-05
-5.12691e-05
-5.72857e-05
-3.73456e-05
-3.01473e-05
-6.05667e-05
-1.00289e-05
-7.96344e-05
-0.000109192
1.21042e-05
-4.39817e-05
9.01753e-06
-1.84355e-05
1.72416e-05
-5.13539e-05
-1.04338e-05
4.76097e-05
-2.54941e-05
5.74092e-05
2.15834e-07
-3.24128e-05
-5.04443e-05
-8.22566e-05
2.84831e-05
2.44664e-05
-6.1695e-05
-0.000158637
-4.16979e-05
-6.56582e-08
-1.6914e-05
8.77352e-06
5.33127e-05
3.15544e-06
-1.07943e-05
2.4714e-05
-5.96559e-06
3.4323e-05
-2.7311e-05
-6.84743e-06
-1.89443e-06
-4.36435e-05
-0.000106618
-3.96518e-05
-2.96771e-05
-3.55601e-05
1.64218e-05
-5.91241e-05
-4.27187e-05
-1.0673e-06
-6.00028e-06
5.43522e-05
-3.54238e-05
-7.13801e-05
-7.13186e-05
4.01698e-05
1.15472e-05
-5.2352e-05
-1.11543e-05
9.64571e-06
3.1899e-05
-8.5775e-05
1.3962e-05
-6.13796e-05
-7.7415e-06
-3.48629e-05
-1.67098e-05
-4.55657e-05
-6.9602e-05
1.70249e-05
-4.88099e-05
-2.07965e-05
1.59813e-05
-1.05533e-05
-2.3545e-05
-1.24413e-05
-3.31048e-05
-4.6012e-05
-1.3358e-05
-4.2245e-05
-8.32276e-06
-5.94476e-05
-7.82581e-05
8.69716e-06
-2.01969e-06
-8.38251e-05
1.05492e-05
-3.22355e-05
-4.36766e-05
-0.000117681
-8.72556e-06
-3.9958e-05
-3.83074e-05
-7.16749e-05
9.3705e-06
3.00055e-05
-1.70409e-05
-2.3999e-05
-1.85589e-06
-5.11217e-05
-2.02565e-05
-8.13482e-05
-6.40946e-05
3.62427e-05
-8.0271e-05
-7.56315e-06
2.37462e-05
2.21168e-05
-5.27814e-05
-2.42505e-06
3.60699e-05
-9.46558e-05
1.02373e-05
-2.21481e-05
3.97032e-05
-4.13514e-05
-2.55478e-05
-5.70016e-06
3.04061e-05
-6.90699e-05
-4.77678e-05
3.67507e-05
-4.79678e-06
2.05904e-06
-4.86565e-05
-0.000107547
-6.60245e-05
-2.66007e-05
-2.24797e-05
-9.33022e-06
-1.88572e-05
-0.00010145
6.32263e-06
3.69592e-05
4.6104e-06
-1.0849e-05
-2.36548e-05
-8.50842e-05
-3.90909e-05
4.81099e-05
-6.97747e-06
-7.51892e-05
-6.4628e-05
-4.37903e-05
3.0756e-05
-5.53511e-05
1.83098e-06
-5.12167e-05
9.71673e-05
1.1798e-05
-4.14066e-05
-5.2241e-05
-4.83996e-05
-4.73993e-05
3.21249e-05
-3.50834e-05
-7.29866e-05
1.69757e-06
-2.53879e-05
-1.98886e-05
4.50539e-06
-1.73199e-05
7.05677e-05
5.70896e-05
-6.70668e-05
-3.48979e-05
-2.7338e-05
-7.02044e-05
-2.06063e-05
2.42677e-05
8.58865e-05
-8.70344e-05
6.93381e-06
-4.3454e-05
-3.62699e-05
6.90329e-05
3.75875e-05
-6.27586e-05
-4.99107e-06
2.55415e-05
-5.11213e-05
2.26247e-05
-1.34832e-05
-4.80207e-05
-1.9824e-05
3.05462e-06
3.73248e-05
3.42682e-05
-1.23483e-05
-2.31678e-05
-0.000132199
-1.66707e-07
-7.60646e-06
5.12582e-05
-7.35302e-06
-7.36323e-05
5.01703e-06
-3.30424e-05
-1.99093e-06
5.00253e-05
-7.79796e-06
-2.33894e-05
-8.48039e-06
1.05391e-06
-1.92297e-05
7.13237e-05
-5.15233e-05
7.82241e-06
3.11632e-05
6.53433e-05
-4.67901e-05
-2.90641e-05
-1.14908e-05
-2.4956e-05
-9.34281e-05
-2.0482e-05
3.51593e-05
4.88631e-05
3.64083e-05
-1.64524e-05
3.777e-05
6.14577e-05
-4.75247e-05
4.4845e-05
4.40086e-05
9.82266e-06
-5.10862e-05
1.23073e-05
2.34442e-05
7.04303e-05
4.96682e-05
-3.57147e-05
2.25283e-05
5.27361e-06
-2.51164e-05
4.80087e-05
3.40397e-05
2.11627e-05
-2.89201e-05
-7.34256e-05
2.16749e-05
3.48729e-05
1.4212e-06
-4.63353e-05
1.81724e-06
-1.65716e-05
5.22443e-05
1.92712e-05
-4.25103e-05
-9.05939e-05
6.88445e-06
2.94282e-05
9.43278e-06
3.90757e-05
-4.01756e-05
2.79776e-05
-3.307e-05
9.02761e-05
1.87058e-05
2.19363e-05
-2.38946e-05
3.89217e-05
7.95067e-05
-1.42993e-06
-1.07865e-05
-4.31229e-05
-5.6342e-05
3.65556e-05
5.69131e-06
-2.97661e-05
3.18503e-05
-3.75102e-05
-1.97686e-05
6.36958e-05
5.06418e-05
-4.80589e-05
-4.18769e-05
-9.31241e-06
-2.63564e-05
-1.33659e-05
5.09445e-05
7.41067e-05
-1.38811e-05
-5.52128e-05
-6.02389e-05
2.2547e-05
4.0165e-05
-3.56468e-05
4.60857e-05
6.04028e-05
1.00421e-05
-2.72852e-05
-6.84019e-05
1.03852e-05
-3.90664e-05
-6.67318e-05
1.89326e-05
-3.86648e-05
-7.26086e-05
1.55345e-05
3.44656e-05
-9.18191e-06
-2.5239e-05
3.4999e-05
6.71938e-05
-7.81426e-06
-2.34845e-05
1.9087e-05
-3.45564e-05
-3.24694e-06
3.17622e-05
-4.33624e-05
-4.44563e-05
-1.29163e-05
6.19077e-05
-1.54722e-05
-1.92422e-05
-9.33884e-07
1.07804e-05
-2.67862e-05
6.43285e-05
6.28293e-07
3.16115e-05
-3.45439e-05
-2.02109e-05
3.29812e-05
-8.9294e-06
-5.33778e-05
-6.58381e-05
-1.97742e-05
2.38279e-06
3.65471e-05
8.36782e-06
-1.87778e-06
1.48285e-05
-2.75738e-05
4.24774e-05
2.79525e-05
9.69104e-05
6.65836e-05
1.94263e-05
1.45668e-05
-1.3664e-05
5.90174e-05
5.77699e-05
-3.53304e-05
8.6556e-05
-1.88479e-05
-2.10224e-05
-5.39373e-05
1.12335e-05
-1.22985e-05
7.03165e-05
-1.07872e-05
6.14917e-06
5.77937e-05
3.47516e-05
-3.56394e-05
-5.85639e-06
4.38269e-05
2.9995e-05
1.48884e-05
3.09397e-06
-6.29969e-05
1.44142e-05
-9.34466e-05
4.10876e-05
-3.34163e-05
-7.29716e-05
6.78631e-06
-4.31376e-05
3.26065e-05
-5.40693e-05
-3.51896e-05
-7.38096e-06
-3.46786e-05
7.78167e-06
5.28588e-05
1.66985e-05
-1.61515e-06
7.61889e-05
-2.89641e-06
5.27896e-05
3.30999e-05
2.6905e-05
3.20121e-05
-4.14015e-05
-7.91213e-05
6.70389e-06
-3.71062e-05
3.38769e-07
3.12877e-05
2.55891e-05
4.6243e-05
-7.34441e-06
3.85569e-05
-1.8248e-05
8.604e-05
-3.51761e-05
-2.42109e-05
-2.44786e-05
3.96881e-05
3.96362e-05
-5.59608e-06
-1.59822e-05
5.26488e-05
-3.12829e-05
-9.51311e-06
1.32091e-05
3.0308e-05
4.01441e-05
-6.213e-05
6.55779e-06
-4.02803e-05
7.68167e-05
-2.30568e-05
2.42726e-06
-2.36243e-05
-7.65757e-06
1.05554e-06
-7.5846e-05
1.89051e-05
4.24923e-05
2.73308e-06
-4.68809e-05
-0.000111356
2.3297e-05
1.92822e-05
1.66951e-06
4.11419e-05
-1.26256e-05
3.11504e-06
-2.15397e-05
-7.41894e-05
3.57793e-05
1.81666e-05
-4.43212e-05
1.38062e-05
2.49417e-05
-1.4007e-05
-5.45264e-05
-1.59673e-05
4.8483e-05
-4.4991e-06
-0.000139603
5.79741e-05
3.08059e-05
0.000100899
-3.72751e-05
3.82719e-05
1.96727e-05
-2.19459e-05
-3.17e-05
-3.15026e-05
5.79794e-05
8.84749e-05
-9.06724e-06
-5.99881e-05
9.21835e-06
8.46386e-06
-1.89757e-08
-2.07848e-05
-3.9037e-05
0.000130275
-3.43213e-05
-4.70518e-05
5.37112e-05
-2.79676e-06
2.82249e-06
-3.79188e-05
-6.05411e-05
4.75427e-05
4.84361e-05
-1.75369e-05
3.74628e-05
-5.19092e-05
4.18177e-05
3.39499e-05
-6.99728e-05
2.7366e-05
3.88059e-05
1.6781e-05
-5.2678e-05
6.28688e-05
-2.19615e-05
-4.31017e-05
-7.40343e-06
-2.6679e-05
4.2547e-05
3.65009e-06
2.7573e-05
-4.7388e-05
-6.4373e-06
3.03095e-05
-2.26303e-05
-8.19344e-05
-4.95823e-05
1.36232e-05
3.36368e-05
4.53524e-05
-3.78171e-05
6.72048e-05
-2.02054e-05
-6.23033e-05
4.74695e-05
4.62764e-05
1.24052e-05
3.82877e-05
2.15031e-05
5.8714e-05
-6.5e-05
-4.25666e-05
-1.34124e-05
4.39058e-05
4.787e-05
-2.23204e-05
-6.05176e-05
1.98314e-06
-2.43739e-06
-3.00116e-05
1.48922e-05
2.92046e-05
7.28872e-05
7.06638e-05
-3.58247e-05
-0.000140627
2.58458e-05
1.20339e-06
-2.88256e-05
-4.69701e-05
5.72426e-05
3.1258e-05
1.75564e-05
-0.000107817
-1.58475e-05
1.13323e-05
3.99522e-05
3.28138e-05
-4.30106e-05
3.20361e-05
3.74881e-05
-3.91934e-05
2.83309e-05
3.71945e-05
-1.37143e-05
3.56369e-05
-5.44167e-05
8.30449e-05
3.03241e-05
-1.94273e-05
-2.67292e-05
6.84278e-05
4.12182e-05
-2.91595e-05
3.35347e-05
3.92142e-05
3.68371e-05
-3.48373e-05
-2.81517e-05
1.4167e-05
3.52948e-05
-7.15669e-05
-2.16156e-05
4.60051e-05
3.64988e-05
2.3186e-05
-3.1236e-05
-7.13486e-05
2.25481e-05
-3.52721e-05
7.69852e-05
-4.16432e-05
-1.37859e-05
7.45144e-05
-5.40668e-05
4.00364e-06
-1.77849e-05
-5.58053e-05
2.01225e-05
5.96023e-06
5.05826e-05
6.31157e-05
-6.58259e-05
8.14191e-05
-4.32238e-05
-2.44334e-05
2.67199e-05
4.39421e-06
9.56806e-06
7.65489e-06
4.39095e-06
-4.22166e-05
2.17028e-05
1.01276e-05
-1.56352e-05
-7.8815e-05
-2.79713e-05
-7.33044e-06
2.62831e-05
6.22869e-06
2.38395e-05
-8.04127e-06
5.26158e-05
3.00958e-05
-3.07957e-05
-8.68593e-05
1.14745e-05
3.87334e-05
1.11612e-05
-2.85619e-05
-9.12487e-06
-2.48163e-06
2.21188e-05
-3.22948e-06
2.5344e-05
2.25465e-05
3.20964e-05
-2.08742e-05
-3.06289e-06
6.05523e-06
-3.41388e-06
3.49664e-05
-2.44873e-05
5.3474e-05
1.96628e-05
1.27879e-05
-1.1569e-05
2.9253e-05
2.8708e-06
3.39586e-05
-1.87173e-05
-2.88582e-06
-6.90412e-05
2.46683e-05
-5.03869e-06
-1.26843e-05
2.05979e-05
-2.63398e-05
-2.66219e-06
-3.0247e-05
-7.38938e-05
-1.16541e-05
0.000124286
-9.67176e-05
2.30564e-05
4.08877e-05
1.12087e-05
1.89693e-05
2.29748e-05
-6.50398e-05
-1.85564e-05
-3.58939e-05
9.88785e-06
-2.25083e-05
-0.000114619
5.06442e-05
-0.000120174
-5.21549e-05
0.000129995
-2.85546e-05
-3.29314e-05
1.39811e-05
-3.08757e-06
-4.58397e-06
-6.87175e-05
5.00819e-07
2.5406e-05
-3.06808e-05
-4.83696e-05
-2.09839e-05
3.77455e-05
3.99069e-05
1.09909e-05
-3.3776e-05
2.43065e-05
4.9192e-05
4.58608e-05
-7.13919e-05
-6.57425e-05
-4.48683e-05
5.14657e-05
2.45124e-06
-1.54704e-06
-6.96707e-05
3.42494e-07
-1.04237e-05
6.89412e-06
-2.29042e-05
-2.35555e-06
-3.06219e-05
3.27412e-05
-3.22645e-06
-1.03372e-05
-2.52572e-05
2.84621e-05
9.52233e-05
-3.02622e-05
3.21713e-05
4.43808e-05
-4.54085e-05
-0.000101101
-3.30773e-05
0.00011101
6.2544e-05
-5.28282e-05
-0.000107186
-1.18128e-05
6.8567e-05
3.46116e-05
-5.40467e-05
-5.21382e-05
4.75183e-05
-4.06367e-05
-0.000119436
6.12028e-05
-1.81564e-05
-3.11728e-05
0.000105493
-4.5473e-05
-9.29438e-05
-5.38456e-05
9.50508e-06
-5.54986e-05
1.67231e-05
4.28199e-06
-7.23698e-05
6.52473e-06
4.59249e-05
6.77723e-06
-2.06637e-06
5.32221e-05
2.83379e-05
-3.75985e-05
-4.85512e-05
0.000104193
-1.62806e-05
-5.72763e-06
-2.96992e-05
-2.67243e-06
-4.58121e-05
8.22777e-06
-1.3111e-05
-4.38879e-05
-3.36707e-05
-5.49546e-05
4.806e-05
-3.439e-05
5.50934e-05
-3.26773e-05
-2.49941e-05
-9.6088e-06
3.26966e-05
-4.34382e-05
8.21741e-05
3.99072e-06
1.01071e-05
-2.64165e-05
-1.68476e-06
5.18316e-05
-5.05238e-05
7.65342e-05
-2.69972e-05
-2.84478e-05
5.25336e-06
1.91289e-05
5.75269e-05
-1.55075e-05
1.4148e-05
1.54795e-05
9.67544e-05
-2.60592e-05
2.79734e-06
-6.8649e-05
-4.36371e-06
5.3551e-06
-6.23055e-07
-1.12272e-05
2.76113e-05
-7.06455e-05
2.38861e-05
3.64638e-05
-5.86093e-06
-1.4732e-05
5.85364e-05
-1.46392e-06
5.05708e-07
-8.36444e-06
-6.6882e-05
-7.4585e-06
-5.66777e-05
5.4914e-05
-1.55685e-05
-6.51169e-05
1.93968e-05
-2.5009e-05
1.49551e-05
4.44496e-05
-8.87818e-06
-5.64916e-05
-7.07045e-05
-8.34174e-06
-2.963e-05
-2.15264e-06
-1.83217e-05
-1.89245e-06
-0.000102778
8.74815e-06
3.24817e-05
3.07965e-05
-0.000103662
-3.61556e-05
2.02424e-05
8.39112e-05
4.75231e-06
-1.31459e-05
3.19695e-05
7.15256e-07
-3.71365e-05
-7.51374e-05
-6.92124e-05
-2.21212e-06
-7.09707e-05
1.36672e-06
-4.37523e-05
5.21012e-05
-3.20333e-05
-2.11224e-05
9.38261e-06
-1.06078e-06
4.85091e-06
-2.59299e-05
5.72978e-05
-2.03836e-05
4.02206e-05
1.71228e-05
-4.36115e-05
4.79107e-06
-4.09898e-05
-3.49479e-07
2.30946e-05
-3.31625e-05
1.34479e-05
1.23588e-05
-2.61039e-05
-4.6381e-05
1.17682e-05
-4.40206e-05
0.000100773
4.16173e-05
5.95757e-05
5.72705e-06
3.63553e-06
3.72172e-05
-2.83869e-05
-2.65328e-05
-3.87034e-05
-3.32443e-05
-2.94566e-06
-4.83415e-06
-7.4239e-05
-9.21182e-05
-4.12927e-05
9.36042e-05
1.79687e-05
2.46143e-05
5.07901e-05
-3.90919e-05
-4.86937e-05
-6.07774e-05
2.9187e-05
-7.0153e-05
2.39776e-05
5.71004e-05
1.43809e-05
-8.54454e-05
6.4892e-05
5.64079e-06
1.15011e-05
-0.000120717
5.3374e-05
7.3608e-05
5.39096e-06
1.38745e-05
1.18412e-05
-9.65153e-06
3.6695e-05
-3.03437e-05
4.71815e-05
6.17245e-05
-4.68059e-06
-4.04327e-05
-2.98402e-05
4.83403e-06
-1.19221e-06
4.36947e-05
-1.85031e-06
-1.13773e-05
-1.70612e-05
7.82477e-05
-4.58397e-06
1.7914e-05
-3.62855e-05
-7.78631e-05
7.38344e-05
-9.19306e-05
-5.20784e-06
2.0929e-05
2.30619e-06
7.05895e-05
3.83814e-05
7.42089e-06
5.50146e-05
-1.01443e-05
4.60939e-05
-1.68376e-05
-5.88747e-05
-4.91895e-05
5.14213e-05
5.45883e-05
-1.98532e-05
5.8101e-05
3.02002e-05
1.388e-05
2.24962e-05
6.25569e-05
6.90122e-06
-8.80081e-05
-1.3425e-05
-5.00761e-06
4.87003e-05
5.99254e-05
6.30916e-05
1.42632e-06
2.14429e-05
-2.66383e-05
-9.90427e-06
-6.22045e-05
-1.60279e-05
3.25949e-05
-3.85358e-05
-1.90415e-05
5.31536e-05
-2.28165e-05
1.54104e-05
-4.23552e-05
-5.64614e-07
-5.11482e-05
-1.07911e-05
-0.000114606
2.06346e-05
1.91705e-05
7.28536e-05
2.73277e-05
-4.94907e-05
5.05783e-05
5.2787e-05
6.41989e-05
-7.99063e-06
4.43973e-05
-4.86512e-05
-2.58866e-05
-3.12887e-05
9.76641e-05
-4.46031e-05
-4.87093e-05
2.70449e-05
-5.04584e-05
1.36555e-05
-9.01837e-05
-0.000131356
6.04801e-05
5.67492e-05
-1.7009e-05
2.47733e-05
-9.1081e-06
5.16701e-05
-8.06586e-05
3.82909e-05
3.78339e-05
1.5907e-05
-7.97608e-06
-6.65477e-06
3.57419e-05
3.13771e-05
-9.32615e-05
-4.72957e-05
-9.38084e-05
-4.97691e-05
6.84746e-05
-3.54392e-05
9.14559e-06
-3.66225e-05
3.87211e-05
1.69345e-05
4.47612e-05
-5.40495e-05
2.94941e-05
6.61318e-05
1.22407e-05
-6.64293e-05
1.13412e-06
1.48166e-05
-1.36935e-05
6.08948e-05
-9.08971e-07
7.89303e-05
9.09681e-06
5.26162e-05
-9.66362e-05
3.41135e-05
6.60541e-06
-1.27823e-05
-4.43459e-05
-2.06707e-05
3.15043e-06
-9.30624e-07
-6.30614e-05
-0.000100799
-4.15873e-05
-9.15081e-05
-4.8186e-05
5.62922e-05
-1.52458e-05
-5.2291e-05
-2.41202e-05
-1.0829e-05
-4.57695e-05
-4.23087e-05
1.19056e-05
2.83613e-05
-1.41364e-05
-5.28246e-05
-6.13478e-05
1.77323e-05
1.0733e-05
-2.08279e-05
5.96306e-05
1.7907e-06
2.512e-05
-2.36356e-05
5.88675e-05
3.18958e-05
4.76108e-05
-7.31891e-05
7.22468e-05
-0.000100922
-6.24103e-06
6.49315e-05
8.48924e-06
3.23068e-05
-3.30689e-06
-4.32201e-05
2.37848e-06
1.99972e-05
-1.27293e-05
9.59379e-06
3.614e-05
2.75424e-05
6.92134e-05
-2.72365e-06
-6.32238e-05
-6.14533e-06
-7.61147e-06
-1.02113e-05
4.45032e-05
5.20097e-06
2.67312e-05
-6.62997e-06
-4.79841e-06
-2.94803e-05
1.43554e-05
5.68957e-06
6.79197e-05
9.01218e-06
3.43913e-05
1.84247e-05
1.29044e-05
-4.46521e-05
3.45934e-05
3.36543e-05
1.93855e-06
-1.88092e-05
4.46875e-05
-5.23891e-05
6.75361e-05
7.74649e-05
6.37164e-06
8.13848e-05
-3.18107e-05
2.20672e-05
-1.73565e-05
-2.87802e-05
-6.86583e-05
1.19235e-05
2.4791e-05
1.23703e-05
-3.48674e-05
2.16775e-05
-2.2075e-05
-3.52482e-06
1.23351e-05
1.70921e-06
2.97127e-05
-6.88566e-05
-1.33738e-05
9.18964e-05
-3.43514e-05
1.47285e-05
-1.23638e-05
4.94571e-05
2.42065e-05
-4.44689e-05
5.0594e-05
0.000106777
9.66929e-05
6.52508e-05
8.90344e-07
-7.20692e-06
-1.14567e-05
6.66904e-05
-5.44765e-06
4.01797e-05
-2.33978e-05
4.17561e-05
-3.41272e-05
-2.13977e-05
6.28084e-06
-2.62641e-05
3.58208e-05
-8.93138e-05
4.69463e-05
-3.57557e-05
3.30247e-05
2.34646e-05
-9.97115e-05
2.21337e-05
3.57016e-05
-1.87465e-05
2.13261e-05
-6.78239e-05
2.71614e-05
-5.16974e-05
5.68142e-05
4.88441e-05
-1.74807e-05
3.8041e-05
4.54169e-05
1.17876e-05
-8.37946e-06
2.07494e-05
-2.05637e-05
5.28258e-05
-7.5706e-05
-4.26271e-05
-7.67258e-06
2.04986e-05
-1.54357e-05
-3.1233e-05
1.17397e-05
6.21649e-05
4.88082e-05
4.33589e-06
-0.000127571
-5.02239e-05
-6.86678e-05
-6.60998e-05
3.09135e-05
7.61508e-05
-7.01362e-05
-7.02997e-06
9.28505e-06
4.82404e-05
3.83949e-06
8.47282e-06
-6.75763e-05
-1.85829e-05
1.21733e-05
-8.66805e-06
-3.19522e-05
-1.42833e-05
3.18419e-06
7.33079e-06
1.82407e-05
2.56517e-05
-6.78833e-05
-4.71412e-06
3.49288e-05
-5.05326e-05
1.07941e-05
-1.50151e-05
-1.63045e-05
-2.9539e-05
9.53889e-05
2.63911e-05
-1.76688e-05
-2.1502e-05
-1.2799e-05
8.03277e-06
-1.3581e-05
2.63908e-05
-7.18562e-06
-1.90848e-05
2.17275e-05
5.3933e-05
-9.03433e-05
5.7904e-05
-1.44779e-05
-1.46057e-05
-3.83231e-05
-4.54378e-05
2.61617e-05
5.74823e-05
2.0716e-05
1.80583e-05
2.61948e-05
-7.22148e-06
-2.65969e-05
2.38706e-05
-3.81792e-05
-3.29986e-05
2.86612e-05
4.19561e-06
5.3414e-05
-1.29024e-05
-4.54602e-06
9.10494e-05
1.63324e-05
1.69139e-05
-4.63271e-05
3.55742e-05
-3.91717e-05
2.29459e-05
1.72231e-05
3.0864e-06
6.80587e-05
6.72813e-05
-1.70234e-05
-7.54721e-06
4.55865e-05
-1.23874e-05
-6.61274e-06
0.000122597
3.2628e-05
1.82125e-05
2.49495e-05
-5.22538e-05
-2.22391e-05
-5.70166e-05
1.3049e-06
7.69028e-06
2.41781e-05
1.07717e-05
-5.20683e-05
1.76707e-05
6.44927e-05
-6.11882e-05
5.44073e-05
-4.49318e-05
-7.05204e-05
6.23113e-06
3.2792e-05
4.70873e-05
1.32737e-06
1.32956e-05
-7.78598e-05
-2.8183e-05
-6.89295e-06
0.000112601
3.68475e-05
-3.34256e-05
4.85627e-05
3.18352e-05
1.14888e-05
6.94894e-05
0.00013327
-7.38592e-05
-4.20368e-05
-1.68965e-05
2.0411e-05
8.13301e-06
-1.9554e-05
3.47551e-05
5.0591e-05
-6.3039e-05
-4.22687e-05
1.79627e-05
5.70344e-05
-6.66594e-07
2.83977e-05
-3.47801e-05
-8.23161e-05
-3.16935e-05
-5.51022e-05
-1.6948e-05
6.43993e-05
-5.57769e-05
5.2521e-05
-0.00011234
-7.10646e-05
-1.52239e-05
-1.60267e-05
-3.59297e-05
5.28323e-05
4.40271e-05
-4.75463e-06
-6.0578e-05
-2.0325e-05
1.72133e-05
2.4091e-05
-2.15003e-05
-3.80278e-05
1.84206e-05
-5.22971e-05
-1.48043e-05
-9.04261e-05
-1.86133e-05
-1.40981e-05
0.000121308
-2.54699e-05
5.25204e-05
3.79466e-05
3.11937e-05
-3.85311e-05
-5.10248e-06
-4.49661e-05
2.62947e-05
1.12425e-05
-1.86053e-05
1.74433e-05
-3.76214e-05
8.71101e-06
-3.17954e-05
7.14654e-05
-7.47018e-05
0.000101809
5.19636e-05
3.18048e-05
1.94153e-05
4.63659e-05
-3.00468e-06
1.62398e-05
7.99989e-05
3.67546e-06
-1.37992e-05
-5.21084e-05
-5.62184e-05
2.68222e-05
-3.78023e-05
-4.78229e-05
2.88633e-05
-2.68993e-05
-1.16546e-05
-5.02798e-05
3.10766e-05
-2.00593e-05
3.81089e-05
-8.71741e-05
-4.69049e-05
1.67188e-05
4.92431e-05
9.12801e-06
1.42597e-06
-6.6942e-05
-7.27302e-05
-1.43616e-05
-9.74501e-06
-1.56979e-05
2.6738e-05
-9.21225e-05
-5.88649e-05
-1.25875e-05
5.10605e-05
-8.9749e-05
7.86015e-05
1.30895e-05
1.51685e-05
-0.000114672
-4.19712e-05
1.06476e-05
8.8416e-05
-6.75302e-06
-6.93067e-06
1.08086e-05
-9.15199e-05
-1.49589e-05
1.07789e-05
5.18092e-05
-3.28285e-05
4.25932e-05
9.43081e-06
7.85571e-07
4.0361e-05
-3.83507e-06
2.6673e-05
-2.21874e-05
6.10831e-07
2.16463e-06
1.83085e-05
-2.01636e-05
-7.52346e-05
-8.20156e-05
-4.08834e-05
3.06887e-05
3.11446e-05
-1.76036e-05
-1.14894e-05
3.87501e-05
9.27446e-06
1.17538e-05
-4.44879e-05
-5.27485e-05
-4.26522e-05
9.60721e-05
-3.91064e-05
-6.17566e-05
-4.51256e-05
4.72029e-06
-4.1578e-05
-1.74786e-06
2.57664e-05
4.81141e-05
-3.50768e-05
2.89144e-05
3.42637e-05
2.19492e-05
-2.03147e-05
-2.84293e-05
2.95846e-05
6.23257e-05
1.81489e-05
-1.77096e-05
-4.22895e-05
-3.51807e-06
6.3222e-05
3.54683e-06
7.63196e-06
-5.29364e-06
1.017e-05
2.74981e-05
2.9136e-05
-2.60756e-05
-5.974e-05
8.67881e-05
3.29311e-05
-1.45726e-05
-1.42369e-05
5.72904e-05
3.84322e-06
9.8189e-05
0.000121367
-2.85937e-05
2.49975e-05
7.87177e-06
-1.86717e-05
-1.70155e-05
-7.32371e-05
0.00011208
-1.25971e-05
-6.01779e-05
7.86199e-06
3.08841e-05
9.78378e-06
7.84057e-06
1.71359e-05
4.90109e-08
-2.67223e-05
-2.56809e-05
-4.1337e-05
-4.55831e-05
-1.76235e-05
-7.76548e-06
-4.82688e-05
7.13979e-05
1.64243e-05
3.01737e-05
-3.19596e-05
1.39842e-05
-1.39404e-05
-1.55889e-05
4.4764e-06
-1.65856e-05
8.27658e-05
5.56016e-05
5.67269e-06
3.54117e-05
2.86219e-06
-1.63054e-05
2.07495e-05
9.63209e-06
-1.45016e-05
-4.88879e-05
-4.07484e-05
-9.69169e-06
4.12581e-05
-2.15807e-05
-3.41523e-05
5.64961e-05
-1.3731e-05
-5.04198e-05
3.84739e-05
-2.33623e-05
-1.19605e-06
-5.94469e-05
5.95255e-06
6.40081e-05
-7.39723e-05
-2.23718e-05
-4.28874e-06
-7.43159e-05
-1.58099e-05
5.60062e-05
-2.4102e-05
5.20147e-05
4.58726e-05
-3.16432e-05
0.000122277
2.89967e-05
1.20702e-05
-2.74088e-05
-3.44675e-05
-3.202e-05
5.98463e-05
4.27901e-05
-2.5427e-05
-1.6286e-05
4.25264e-05
4.55984e-05
-7.08054e-05
-4.53843e-05
-1.75918e-05
6.00133e-05
3.70808e-05
4.36971e-05
-7.64546e-06
2.1755e-05
1.48431e-05
1.47813e-05
3.4952e-05
1.44988e-05
-7.17354e-05
5.90796e-05
3.93532e-05
-1.62125e-05
4.74529e-05
-1.84561e-05
-3.84233e-05
8.4609e-05
5.78982e-05
5.29932e-05
-2.82943e-05
-1.40268e-05
-3.38187e-06
6.56869e-05
1.7016e-05
1.81666e-05
-1.4518e-05
-3.22155e-05
8.30181e-06
5.70652e-05
3.72085e-05
6.89616e-05
3.92862e-05
3.07863e-05
-1.59347e-05
4.17503e-05
8.47247e-06
-3.21823e-05
-1.07551e-05
-1.45925e-05
5.3932e-05
1.21887e-05
2.11243e-05
-2.64748e-05
1.12987e-05
-2.39076e-05
-1.4451e-05
1.09978e-05
-7.7358e-06
4.69002e-06
1.68594e-05
6.67057e-05
1.57988e-05
-0.000107579
-8.24989e-05
6.52275e-06
-5.85072e-05
5.17326e-05
1.84866e-05
1.66775e-05
-7.07683e-05
5.68549e-06
-1.86225e-05
-4.33438e-05
5.83278e-05
-4.15354e-05
-7.76742e-05
-1.33205e-05
-3.74748e-05
-1.09954e-06
5.06309e-05
3.43451e-05
5.21399e-05
2.95317e-05
4.71439e-05
-2.02376e-05
0.000134812
5.5166e-05
-3.82703e-05
-1.12219e-05
0.000111733
1.12806e-06
-1.38336e-05
-2.07325e-05
-1.05335e-05
5.7515e-06
2.51089e-05
-6.47181e-05
1.22259e-06
0.000118249
2.02319e-05
-6.96786e-05
-8.3458e-05
9.0689e-05
4.29547e-05
-6.09942e-05
-2.33646e-06
4.52378e-06
-2.48618e-05
-7.49844e-05
-6.30133e-06
3.3979e-05
6.28863e-05
-2.65916e-06
-2.97542e-05
-6.67723e-05
-1.08313e-05
7.42334e-06
3.03178e-05
-1.26918e-05
1.26478e-05
-3.24745e-05
-1.54038e-05
4.65964e-05
-6.06524e-07
-7.33233e-05
-3.61169e-05
3.19344e-05
5.07116e-05
5.52048e-05
-3.86606e-05
-2.71016e-05
-1.73168e-06
4.00438e-05
-1.28824e-05
1.1524e-05
2.75385e-05
1.51002e-05
2.02367e-05
3.27817e-05
-0.000103583
-2.37202e-05
5.6299e-05
-3.56055e-05
-8.56414e-05
0.000101617
-2.90703e-05
2.15786e-05
-5.19508e-05
6.2933e-06
-5.95591e-05
3.80224e-06
-4.01154e-05
2.21786e-05
-9.73779e-06
6.35829e-05
-2.76129e-05
-2.5439e-05
9.06726e-05
-5.55888e-05
-3.51438e-05
1.4781e-05
-2.30942e-05
3.46849e-05
-4.10143e-05
-1.09319e-05
2.98413e-05
3.45646e-05
-4.7846e-05
-5.78745e-05
-3.72985e-05
3.58617e-05
-1.02356e-05
-1.76756e-05
3.83474e-05
4.55044e-06
-3.07255e-05
-6.31751e-05
6.19038e-06
-5.68884e-05
0.000120349
-0.000117729
-6.80871e-05
1.01869e-05
-1.02166e-05
2.82165e-05
-1.96019e-05
-6.25639e-06
3.50745e-05
9.93151e-06
-5.96482e-05
5.40576e-05
-2.97579e-05
-7.25733e-07
-9.39064e-06
-2.64803e-05
5.89004e-05
9.35844e-05
7.95013e-05
-1.68919e-05
-6.82932e-05
-7.77037e-05
4.75629e-05
-1.31771e-06
1.17446e-05
5.16309e-05
-6.31507e-05
2.21432e-05
3.45728e-05
-3.89625e-05
4.92728e-05
9.85328e-06
-2.73691e-05
-7.18011e-05
-2.20723e-06
9.41264e-06
5.686e-05
-2.01403e-05
-8.62242e-06
7.08946e-06
9.57865e-07
-2.91984e-05
-3.67723e-05
9.87202e-07
-7.08294e-06
-7.7707e-05
4.0713e-05
2.28039e-05
-2.3353e-05
-2.82731e-05
6.35651e-06
-3.10617e-05
-2.3779e-05
5.87651e-05
3.77756e-05
-8.88547e-05
1.88744e-05
2.82153e-05
2.42069e-05
-1.97265e-05
3.13721e-05
2.6772e-05
-2.78915e-05
-1.14412e-05
4.39796e-05
-1.84723e-05
6.28945e-06
-9.41614e-06
3.67076e-05
-1.65384e-05
-2.21906e-05
-3.26344e-05
2.11539e-05
-9.0529e-05
-2.25265e-05
7.17829e-06
-1.67807e-05
-5.12953e-05
-4.15264e-05
3.02584e-05
1.8758e-05
1.34518e-05
6.79974e-05
0.000103678
-2.68696e-05
-5.62214e-05
-7.36862e-06
-8.72894e-06
-8.22102e-06
-0.000119191
3.0766e-05
9.97077e-05
7.93552e-05
2.35238e-05
2.89478e-06
3.23565e-05
6.61949e-06
-1.27404e-05
-1.12372e-05
3.50224e-06
6.08945e-05
-6.73509e-06
5.99331e-05
-9.10799e-06
-4.93436e-05
-1.2501e-05
-1.79205e-05
3.41784e-05
-3.37978e-05
7.39493e-06
5.94535e-05
0.000102923
1.58967e-05
2.07406e-06
6.60841e-05
-5.49527e-05
-6.422e-05
4.83613e-06
5.86051e-05
-3.53623e-05
-0.000113618
-3.21862e-05
8.25315e-06
3.03728e-05
4.09479e-06
1.2588e-05
-2.57911e-05
4.02937e-06
-1.99419e-05
-0.000115459
-8.30321e-06
2.3432e-05
1.6768e-05
-9.89926e-06
-1.77936e-05
3.41064e-05
5.38381e-05
-8.89646e-07
-3.26862e-05
-1.44829e-05
1.08395e-05
2.86294e-05
1.4196e-05
-1.13214e-05
4.36334e-05
-9.70066e-06
4.36597e-05
-6.26105e-06
-6.49591e-05
8.33399e-05
7.37386e-06
-2.33592e-05
-5.29964e-05
8.21997e-06
-7.67077e-05
-5.47342e-05
1.69985e-05
-2.35284e-05
6.93032e-05
-5.89245e-05
-1.58969e-05
-3.79712e-06
-4.36553e-05
1.74996e-06
6.90878e-06
-1.56339e-05
-1.2681e-05
-6.31355e-06
-2.87474e-05
6.35841e-05
-1.27362e-05
2.9887e-05
-1.94589e-05
0.00010666
-6.87308e-05
2.64298e-06
7.97829e-05
-7.28983e-05
-2.11628e-05
-1.829e-06
-5.65476e-06
-3.07187e-05
-1.66008e-07
6.13104e-05
-4.53605e-05
-3.93728e-06
2.74237e-05
5.10009e-05
6.30191e-06
2.15227e-05
-5.93152e-05
-4.52383e-05
-4.56916e-05
-4.39743e-05
-2.38919e-05
-5.03429e-05
-2.24272e-05
-6.28908e-05
1.11944e-05
0.000117078
1.08844e-05
1.60374e-06
7.11589e-06
-1.24832e-05
-9.79607e-05
1.17281e-05
-2.43355e-05
-6.52866e-05
-4.57341e-05
9.77498e-05
-2.84512e-05
2.46849e-05
2.89708e-05
-3.39512e-05
9.19255e-05
-5.0638e-05
-3.13998e-05
4.17582e-07
2.26261e-05
5.23939e-05
-4.6351e-05
3.01981e-06
-7.2588e-05
3.62425e-05
4.538e-05
5.1028e-05
4.96125e-05
1.1462e-05
6.3146e-06
1.38569e-05
1.41456e-06
1.35627e-05
-5.94299e-05
-5.2609e-05
-3.14448e-05
3.68988e-05
-1.13039e-06
4.39456e-06
1.65974e-05
1.01097e-05
-4.56732e-05
-5.67066e-05
-2.16062e-05
3.75428e-06
3.02108e-05
2.47172e-05
-3.70555e-05
-4.68162e-05
-8.03267e-05
-3.89204e-05
8.46453e-05
4.352e-05
1.98975e-05
-8.17573e-06
-6.95779e-06
-5.38764e-05
3.58443e-05
-6.18509e-05
7.9043e-05
-1.59475e-05
-3.9917e-05
-6.26175e-05
3.51213e-05
5.15337e-05
1.97091e-06
-3.47092e-06
-9.94932e-06
5.45727e-05
-4.3594e-05
-3.20036e-05
3.58504e-05
-2.33701e-05
-7.19354e-06
3.16271e-05
-2.36786e-05
4.79086e-05
6.11597e-05
-1.50183e-05
5.83356e-05
-1.60109e-05
-5.55508e-05
-4.11181e-05
3.92945e-05
8.73671e-05
-9.01835e-06
2.39061e-05
5.3123e-05
-2.11725e-06
3.75924e-05
-6.11136e-05
-5.3782e-05
4.75651e-05
-2.97433e-05
-7.41597e-05
-1.30142e-05
3.82913e-06
-4.95901e-05
-1.00627e-05
1.48062e-05
3.36743e-06
-4.77559e-05
-3.26617e-05
4.78001e-06
4.40957e-05
4.04308e-05
-4.65774e-05
-4.65794e-05
9.95409e-06
6.58093e-05
1.77757e-05
-1.76018e-05
-0.000102062
4.74709e-05
-2.01673e-05
-7.77573e-06
-8.79855e-06
4.50334e-05
-5.59189e-06
-5.70053e-05
-1.93111e-05
-3.39667e-05
4.75908e-05
2.16513e-05
-2.2209e-05
-2.47788e-05
-2.54153e-05
-5.89038e-06
-1.15656e-05
-4.13181e-05
-4.02357e-05
1.2063e-06
-4.48263e-05
2.0425e-05
3.38082e-06
-2.82915e-05
3.01641e-05
9.3485e-06
-6.713e-05
-4.05738e-05
7.09337e-05
-3.3956e-05
-2.67515e-05
2.17735e-05
1.56359e-05
1.44395e-05
-8.90181e-06
-1.19938e-05
1.44318e-05
8.70277e-05
-9.70205e-07
1.24229e-05
-5.59277e-05
-1.92777e-05
3.90811e-05
3.06987e-06
-4.05498e-05
7.5663e-06
6.72849e-05
3.94987e-05
-7.47544e-05
-3.48643e-05
2.46887e-05
-5.16156e-05
3.76708e-06
-4.08546e-05
-1.83186e-05
8.32826e-05
-3.53506e-05
-3.56361e-05
-9.10205e-06
-2.37032e-05
-7.61586e-05
-4.31739e-05
-3.44526e-05
3.03321e-05
-5.93204e-05
-4.43425e-05
-1.38484e-05
2.80143e-05
4.43456e-05
7.11181e-06
-4.18979e-07
-3.37957e-05
5.63174e-05
4.62115e-05
-7.51622e-05
0.000106831
-4.85465e-05
-1.38163e-05
-8.41217e-07
-1.47608e-05
-6.57e-05
-1.55212e-05
-5.28956e-06
1.8182e-05