# vtk DataFile Version 1.0
Net Charge Density
ASCII
DATASET STRUCTURED_POINTS
DIMENSIONS 256 128 1
ORIGIN 0 0 0
SPACING 0.15625 0.15625 1
POINT_DATA 32768
SCALARS rhonet float
LOOKUP_TABLE default
-3.8963e-06
-9.51275e-05
0.000144792
9.63213e-05
3.56846e-05
0.000120451
-0.000118445
9.18584e-05
0.000154216
2.28994e-05
-3.75606e-05
0.000108726
0.00010382
7.94455e-05
0.000109346
4.99607e-05
8.77433e-05
0.000140236
4.0588e-05
-6.79099e-05
-6.4068e-06
0.000141859
0.000144767
4.77827e-05
3.72682e-05
2.0743e-05
7.74218e-05
9.0589e-05
-1.35219e-05
-7.27432e-05
5.23025e-05
3.97239e-05
4.3669e-05
6.90084e-05
1.24415e-05
0.000171713
1.68066e-05
7.28726e-05
7.73576e-05
-5.53078e-06
2.29321e-05
6.83195e-06
0.000136404
9.39809e-05
2.09393e-05
1.86833e-05
-3.16133e-05
6.95544e-05
0.000116213
7.88723e-05
-1.20078e-05
2.49785e-05
8.34423e-05
0.000148996
3.55954e-05
1.75039e-05
0.000151011
-5.17472e-05
5.67839e-06
7.1696e-05
5.02794e-05
6.0602e-05
7.16792e-06
8.018e-05
8.22493e-05
-8.03836e-05
4.41818e-05
0.000136175
4.09958e-05
4.82829e-05
7.92337e-05
3.67111e-05
-2.69156e-05
4.9667e-05
-1.15251e-07
5.11548e-05
4.2086e-05
-3.8308e-05
9.21617e-05
0.000106615
8.71842e-05
2.54085e-05
7.49612e-05
0.000101106
4.54688e-05
-4.47978e-06
-1.66915e-05
6.70487e-05
0.000119669
-2.34876e-05
9.00027e-05
-1.47951e-05
-3.9053e-05
-6.21495e-06
-8.9918e-05
5.22721e-05
0.000157961
2.40974e-05
9.16885e-05
-2.49447e-05
0.000157723
9.09191e-05
-3.16952e-06
9.47256e-05
3.9038e-05
0.00013097
-2.58675e-07
-6.85495e-05
2.66242e-06
7.39995e-05
0.00013342
5.79278e-05
2.02985e-05
3.31155e-05
8.04212e-05
4.36602e-05
1.22655e-05
7.4969e-05
5.09606e-05
4.32277e-05
-3.98804e-05
-3.45629e-05
4.04443e-05
2.44897e-05
0.00011572
6.60871e-05
1.82551e-05
8.13096e-05
1.99639e-05
-1.88102e-05
0.000119796
9.26161e-05
-2.24472e-06
3.77484e-05
2.03247e-05
6.79656e-06
4.4609e-05
-3.19162e-05
4.68965e-05
-1.15024e-05
-4.9841e-05
2.32956e-05
2.09623e-05
0.000160761
9.88222e-05
2.06393e-06
0.000137836
1.15244e-05
-3.11242e-05
0.000132418
1.78269e-05
2.91321e-05
0.000108428
-8.345e-06
3.45046e-05
4.32304e-05
5.74661e-06
3.4271e-05
-5.27594e-06
1.75425e-05
7.6778e-05
2.50085e-05
0.000112709
-2.20691e-05
3.25856e-05
2.55227e-05
5.84624e-05
-6.12721e-05
0.000105448
0.000137295
2.50295e-05
4.32236e-05
7.45822e-05
0.000111579
-2.02679e-05
-8.13336e-06
8.72931e-05
-8.23222e-05
1.15579e-05
3.31809e-05
8.87696e-05
-7.05995e-05
-3.18105e-05
5.65359e-06
1.0499e-05
7.98533e-05
4.142e-05
7.20919e-05
0.000102554
7.46856e-05
2.48844e-05
0.000198125
8.16125e-05
-6.56992e-05
6.242e-05
0.000201229
4.75227e-05
8.32754e-05
7.86667e-05
-1.63091e-05
5.95989e-05
0.000149169
4.39016e-05
3.83358e-05
-1.00756e-05
6.97707e-05
-5.98877e-05
5.34237e-05
6.86804e-05
8.57905e-05
6.81025e-05
0.000137439
0.000106097
-2.40521e-05
0.000111081
-0.000131281
0.000102691
9.90946e-05
-5.28728e-05
-3.79211e-05
8.69746e-05
0.000114877
0.000176991
3.40524e-05
7.95297e-05
5.67449e-05
-3.69136e-05
-1.51399e-05
8.69037e-05
6.8607e-05
6.22845e-06
4.16542e-05
2.36377e-05
2.60696e-05
0.000121308
-3.55702e-05
-2.05769e-05
2.75004e-05
5.94512e-05
8.97935e-06
1.84993e-05
8.66939e-05
-5.82666e-05
-3.06987e-07
2.659e-05
-1.44092e-05
-2.21959e-05
-3.95465e-05
0.000128655
-4.29596e-06
2.10481e-05
-3.85132e-05
0.000102294
2.14374e-05
2.40526e-05
4.1862e-05
-0.0001049
2.47045e-05
-6.30287e-05
-2.51194e-05
-2.38866e-05
5.12257e-05
-2.60451e-05
-7.5764e-05
4.9893e-05
-6.6046e-05
-4.29004e-05
2.33416e-05
-5.99085e-05
-8.0273e-05
3.00258e-06
-4.24259e-05
4.66162e-06
1.08909e-05
-2.15756e-05
-4.0608e-06
-5.82078e-05
-6.74939e-05
-0.000106138
-1.79199e-05
-2.0046e-05
-5.72714e-05
-2.52763e-05
7.72998e-06
-3.0741e-05
-8.53874e-05
-3.53896e-05
-8.36118e-06
2.7442e-05
-7.95687e-05
-6.67482e-05
2.31338e-05
-0.000103178
-3.37883e-05
1.98343e-05
-8.20335e-05
-5.15862e-05
-4.38414e-05
8.67306e-06
3.55998e-05
-2.47128e-05
4.87454e-06
-0.000112384
-3.15172e-05
3.88793e-05
-3.39414e-05
-6.56137e-05
-4.11929e-05
-3.17383e-05
2.9823e-05
-2.85325e-05
-3.54571e-05
-2.3486e-05
-0.00011611
1.48105e-05
-3.3793e-05
4.56306e-05
-5.12688e-05
-5.72851e-05
-3.73459e-05
-3.01477e-05
-6.0566e-05
-1.00286e-05
-7.9634e-05
-0.000109191
1.21046e-05
-4.39819e-05
9.01718e-06
-1.84353e-05
1.72416e-05
-5.13538e-05
-1.04341e-05
4.761e-05
-2.54941e-05
5.74086e-05
2.163e-07
-3.24125e-05
-5.04445e-05
-8.22566e-05
2.84829e-05
2.44656e-05
-6.16948e-05
-0.000158637
-4.16981e-05
-6.56582e-08
-1.69139e-05
8.77376e-06
5.3312e-05
3.15614e-06
-1.07943e-05
2.47139e-05
-5.96559e-06
3.43232e-05
-2.73117e-05
-6.84732e-06
-1.89489e-06
-4.36439e-05
-0.000106618
-3.96519e-05
-2.96773e-05
-3.55598e-05
1.64219e-05
-5.91237e-05
-4.27184e-05
-1.06706e-06
-6.00039e-06
5.43522e-05
-3.54244e-05
-7.13792e-05
-7.13182e-05
4.01698e-05
1.15476e-05
-5.2351e-05
-1.11543e-05
9.64536e-06
3.1899e-05
-8.57747e-05
1.39603e-05
-6.13797e-05
-7.74139e-06
-3.48629e-05
-1.67097e-05
-4.55661e-05
-6.9603e-05
1.7025e-05
-4.88103e-05
-2.07969e-05
1.59815e-05
-1.05528e-05
-2.35449e-05
-1.24408e-05
-3.31044e-05
-4.60122e-05
-1.33577e-05
-4.22454e-05
-8.32335e-06
-5.94476e-05
-7.82579e-05
8.69716e-06
-2.02004e-06
-8.38249e-05
1.05491e-05
-3.2236e-05
-4.36768e-05
-0.000117681
-8.72544e-06
-3.99578e-05
-3.83077e-05
-7.16746e-05
9.3705e-06
3.00051e-05
-1.70406e-05
-2.39993e-05
-1.85624e-06
-5.11223e-05
-2.02559e-05
-8.13482e-05
-6.40949e-05
3.62431e-05
-8.0271e-05
-7.56362e-06
2.37458e-05
2.21166e-05
-5.27812e-05
-2.42528e-06
3.60705e-05
-9.46563e-05
1.02371e-05
-2.21478e-05
3.97032e-05
-4.1351e-05
-2.55483e-05
-5.70039e-06
3.04061e-05
-6.90697e-05
-4.77673e-05
3.67505e-05
-4.79643e-06
2.05904e-06
-4.86564e-05
-0.000107547
-6.60245e-05
-2.66002e-05
-2.24798e-05
-9.32976e-06
-1.88574e-05
-0.00010145
6.32228e-06
3.69592e-05
4.60993e-06
-1.08493e-05
-2.36548e-05
-8.5084e-05
-3.90911e-05
4.81099e-05
-6.97759e-06
-7.51886e-05
-6.4628e-05
-4.37894e-05
3.07567e-05
-5.53511e-05
1.8311e-06
-5.12165e-05
9.7167e-05
1.17976e-05
-4.14071e-05
-5.22416e-05
-4.8399e-05
-4.73997e-05
3.21253e-05
-3.50833e-05
-7.29871e-05
1.69838e-06
-2.53876e-05
-1.98882e-05
4.50551e-06
-1.73196e-05
7.05675e-05
5.7089e-05
-6.70665e-05
-3.48981e-05
-2.73385e-05
-7.02046e-05
-2.06062e-05
2.42676e-05
8.58863e-05
-8.70344e-05
6.93474e-06
-4.34534e-05
-3.627e-05
6.90318e-05
3.75884e-05
-6.27582e-05
-4.99131e-06
2.55415e-05
-5.1121e-05
2.26245e-05
-1.34832e-05
-4.80205e-05
-1.98237e-05
3.05497e-06
3.73246e-05
3.4268e-05
-1.23485e-05
-2.31675e-05
-0.000132199
-1.66823e-07
-7.60634e-06
5.12585e-05
-7.35326e-06
-7.3632e-05
5.0175e-06
-3.30423e-05
-1.99105e-06
5.00253e-05
-7.79831e-06
-2.33891e-05
-8.48016e-06
1.05391e-06
-1.92298e-05
7.13237e-05
-5.15231e-05
7.82206e-06
3.11636e-05
6.53436e-05
-4.67903e-05
-2.9064e-05
-1.14907e-05
-2.49564e-05
-9.34283e-05
-2.04816e-05
3.51585e-05
4.88627e-05
3.6408e-05
-1.6453e-05
3.777e-05
6.1458e-05
-4.75243e-05
4.48453e-05
4.40089e-05
9.82336e-06
-5.10869e-05
1.2307e-05
2.34445e-05
7.04301e-05
4.96685e-05
-3.57147e-05
2.25287e-05
5.27361e-06
-2.51159e-05
4.80087e-05
3.40398e-05
2.11622e-05
-2.89197e-05
-7.34264e-05
2.16749e-05
3.48731e-05
1.42131e-06
-4.63354e-05
1.81736e-06
-1.65715e-05
5.22442e-05
1.92714e-05
-4.25102e-05
-9.05949e-05
6.8841e-06
2.94282e-05
9.43278e-06
3.90755e-05
-4.01768e-05
2.79773e-05
-3.30701e-05
9.02759e-05
1.87058e-05
2.19361e-05
-2.38949e-05
3.89218e-05
7.95065e-05
-1.43016e-06
-1.07865e-05
-4.31229e-05
-5.63425e-05
3.65556e-05
5.6912e-06
-2.97657e-05
3.18503e-05
-3.75104e-05
-1.97681e-05
6.36961e-05
5.06414e-05
-4.80582e-05
-4.1877e-05
-9.31253e-06
-2.63558e-05
-1.33661e-05
5.09452e-05
7.41072e-05
-1.38807e-05
-5.5213e-05
-6.02389e-05
2.25471e-05
4.01655e-05
-3.56471e-05
4.60853e-05
6.04026e-05
1.0042e-05
-2.72854e-05
-6.84018e-05
1.03842e-05
-3.90662e-05
-6.67314e-05
1.89326e-05
-3.86644e-05
-7.26085e-05
1.55345e-05
3.44657e-05
-9.18214e-06
-2.52388e-05
3.49988e-05
6.71938e-05
-7.81415e-06
-2.3485e-05
1.90872e-05
-3.45566e-05
-3.24706e-06
3.17625e-05
-4.33619e-05
-4.44569e-05
-1.29158e-05
6.19078e-05
-1.54716e-05
-1.92425e-05
-9.34117e-07
1.07798e-05
-2.67866e-05
6.43285e-05
6.28876e-07
3.16112e-05
-3.45437e-05
-2.02105e-05
3.29812e-05
-8.92999e-06
-5.33768e-05
-6.58385e-05
-1.9774e-05
2.38302e-06
3.65477e-05
8.36805e-06
-1.87801e-06
1.4829e-05
-2.75741e-05
4.24773e-05
2.79526e-05
9.69107e-05
6.6583e-05
1.94266e-05
1.45666e-05
-1.3664e-05
5.90173e-05
5.77695e-05
-3.53307e-05
8.65557e-05
-1.88486e-05
-2.10225e-05
-5.39372e-05
1.12338e-05
-1.22985e-05
7.03165e-05
-1.07873e-05
6.14906e-06
5.77937e-05
3.47516e-05
-3.56395e-05
-5.85581e-06
4.38269e-05
2.99953e-05
1.48879e-05
3.0942e-06
-6.29972e-05
1.4414e-05
-9.34466e-05
4.10876e-05
-3.34161e-05
-7.29722e-05
6.78655e-06
-4.31377e-05
3.26064e-05
-5.40692e-05
-3.51893e-05
-7.38061e-06
-3.46787e-05
7.78167e-06
5.28587e-05
1.6699e-05
-1.61515e-06
7.61887e-05
-2.89653e-06
5.27899e-05
3.30996e-05
2.69053e-05
3.2012e-05
-4.1401e-05
-7.91216e-05
6.70389e-06
-3.71061e-05
3.38303e-07
3.12878e-05
2.55891e-05
4.62423e-05
-7.34476e-06
3.85566e-05
-1.82482e-05
8.604e-05
-3.51759e-05
-2.42109e-05
-2.44789e-05
3.96877e-05
3.96364e-05
-5.5962e-06
-1.59822e-05
5.26489e-05
-3.12825e-05
-9.51323e-06
1.32086e-05
3.03081e-05
4.01437e-05
-6.21305e-05
6.55768e-06
-4.02809e-05
7.68164e-05
-2.30577e-05
2.42726e-06
-2.36236e-05
-7.65722e-06
1.05565e-06
-7.58457e-05
1.89054e-05
4.24922e-05
2.73262e-06
-4.68806e-05
-0.000111356
2.32973e-05
1.92825e-05
1.67009e-06
4.11419e-05
-1.26258e-05
3.11446e-06
-2.15394e-05
-7.41889e-05
3.57799e-05
1.81665e-05
-4.43205e-05
1.38058e-05
2.49416e-05
-1.40069e-05
-5.45267e-05
-1.59668e-05
4.84829e-05
-4.49899e-06
-0.000139603
5.79744e-05
3.08063e-05
0.000100899
-3.72754e-05
3.82718e-05
1.96723e-05
-2.19455e-05
-3.16995e-05
-3.15025e-05
5.79788e-05
8.84752e-05
-9.06771e-06
-5.99887e-05
9.21846e-06
8.46409e-06
-1.82772e-08
-2.07855e-05
-3.90372e-05
0.000130275
-3.43211e-05
-4.70518e-05
5.37115e-05
-2.79653e-06
2.82226e-06
-3.79189e-05
-6.05412e-05
4.75424e-05
4.84353e-05
-1.75373e-05
3.7463e-05
-5.19104e-05
4.18174e-05
3.39493e-05
-6.99728e-05
2.73653e-05
3.88059e-05
1.67809e-05
-5.26783e-05
6.2869e-05
-2.19624e-05
-4.31014e-05
-7.40343e-06
-2.66792e-05
4.25465e-05
3.65009e-06
2.7573e-05
-4.73877e-05
-6.43684e-06
3.03095e-05
-2.26301e-05
-8.19345e-05
-4.95823e-05
1.36237e-05
3.36366e-05
4.53526e-05
-3.78172e-05
6.72054e-05
-2.02055e-05
-6.23034e-05
4.74696e-05
4.62764e-05
1.24059e-05
3.82881e-05
2.15032e-05
5.8714e-05
-6.49998e-05
-4.25664e-05
-1.34122e-05
4.39064e-05
4.78699e-05
-2.23203e-05
-6.05177e-05
1.98279e-06
-2.4375e-06
-3.00119e-05
1.48923e-05
2.92044e-05
7.28871e-05
7.06636e-05
-3.58254e-05
-0.000140627
2.58461e-05
1.2035e-06
-2.88257e-05
-4.69701e-05
5.72423e-05
3.12587e-05
1.75567e-05
-0.000107817
-1.58474e-05
1.13328e-05
3.99521e-05
3.28134e-05
-4.30103e-05
3.2036e-05
3.74883e-05
-3.91934e-05
2.83311e-05
3.71942e-05
-1.37144e-05
3.56364e-05
-5.4416e-05
8.30445e-05
3.03236e-05
-1.94269e-05
-2.67293e-05
6.84278e-05
4.12179e-05
-2.91597e-05
3.35348e-05
3.92136e-05
3.68368e-05
-3.48372e-05
-2.81513e-05
1.41673e-05
3.52946e-05
-7.15666e-05
-2.1616e-05
4.60051e-05
3.64992e-05
2.31861e-05
-3.12361e-05
-7.13484e-05
2.25479e-05
-3.52724e-05
7.69858e-05
-4.16434e-05
-1.37856e-05
7.45147e-05
-5.40672e-05
4.00352e-06
-1.77843e-05
-5.58051e-05
2.01227e-05
5.95953e-06
5.05819e-05
6.31156e-05
-6.58253e-05
8.14191e-05
-4.32242e-05
-2.44335e-05
2.67205e-05
4.39445e-06
9.56794e-06
7.65501e-06
4.39025e-06
-4.22163e-05
2.17026e-05
1.01281e-05
-1.56356e-05
-7.88143e-05
-2.79713e-05
-7.33125e-06
2.62831e-05
6.22845e-06
2.38395e-05
-8.0415e-06
5.26157e-05
3.0096e-05
-3.07953e-05
-8.68589e-05
1.14748e-05
3.87328e-05
1.11605e-05
-2.85618e-05
-9.1251e-06
-2.48151e-06
2.21189e-05
-3.22971e-06
2.5344e-05
2.25471e-05
3.20965e-05
-2.0874e-05
-3.06265e-06
6.05534e-06
-3.414e-06
3.49667e-05
-2.44875e-05
5.34737e-05
1.96631e-05
1.27887e-05
-1.15683e-05
2.92525e-05
2.8708e-06
3.39586e-05
-1.8717e-05
-2.8864e-06
-6.90414e-05
2.46685e-05
-5.03857e-06
-1.26839e-05
2.05978e-05
-2.63399e-05
-2.66172e-06
-3.02475e-05
-7.3893e-05
-1.16549e-05
0.000124286
-9.6718e-05
2.30563e-05
4.0888e-05
1.12085e-05
1.89696e-05
2.2975e-05
-6.50402e-05
-1.8556e-05
-3.5894e-05
9.88762e-06
-2.25087e-05
-0.00011462
5.0644e-05
-0.000120174
-5.21551e-05
0.000129995
-2.85541e-05
-3.29319e-05
1.3981e-05
-3.08803e-06
-4.58409e-06
-6.8718e-05
5.00819e-07
2.54061e-05
-3.06809e-05
-4.83694e-05
-2.09835e-05
3.77459e-05
3.99075e-05
1.09904e-05
-3.37758e-05
2.43066e-05
4.91925e-05
4.58611e-05
-7.13918e-05
-6.57426e-05
-4.48683e-05
5.1466e-05
2.45078e-06
-1.54681e-06
-6.9671e-05
3.42727e-07
-1.04229e-05
6.89435e-06
-2.29038e-05
-2.35531e-06
-3.06219e-05
3.27412e-05
-3.2268e-06
-1.03376e-05
-2.52568e-05
2.84621e-05
9.52234e-05
-3.02622e-05
3.21709e-05
4.4381e-05
-4.54086e-05
-0.000101101
-3.3077e-05
0.00011101
6.2544e-05
-5.2828e-05
-0.000107187
-1.18131e-05
6.85672e-05
3.46114e-05
-5.40467e-05
-5.21381e-05
4.75178e-05
-4.06372e-05
-0.000119435
6.12034e-05
-1.81565e-05
-3.11725e-05
0.000105493
-4.54726e-05
-9.29433e-05
-5.38457e-05
9.50601e-06
-5.5499e-05
1.67231e-05
4.28164e-06
-7.23697e-05
6.52415e-06
4.59249e-05
6.77793e-06
-2.06684e-06
5.32218e-05
2.83384e-05
-3.75984e-05
-4.8551e-05
0.000104193
-1.62808e-05
-5.72763e-06
-2.96994e-05
-2.67266e-06
-4.5812e-05
8.22789e-06
-1.31114e-05
-4.38879e-05
-3.36709e-05
-5.49546e-05
4.80607e-05
-3.43904e-05
5.50938e-05
-3.26771e-05
-2.49944e-05
-9.60927e-06
3.26961e-05
-4.34383e-05
8.21742e-05
3.99025e-06
1.01074e-05
-2.64167e-05
-1.68523e-06
5.18311e-05
-5.05231e-05
7.65347e-05
-2.69968e-05
-2.84479e-05
5.25359e-06
1.91295e-05
5.75271e-05
-1.55069e-05
1.41477e-05
1.54796e-05
9.67548e-05
-2.6059e-05
2.79746e-06
-6.8649e-05
-4.36394e-06
5.3551e-06
-6.23171e-07
-1.12273e-05
2.76119e-05
-7.06455e-05
2.38863e-05
3.64643e-05
-5.86093e-06
-1.47319e-05
5.85358e-05
-1.46369e-06
5.05708e-07
-8.36386e-06
-6.68821e-05
-7.45826e-06
-5.66773e-05
5.49137e-05
-1.55682e-05
-6.51169e-05
1.93969e-05
-2.50089e-05
1.49552e-05
4.44497e-05
-8.87865e-06
-5.64917e-05
-7.07046e-05
-8.34127e-06
-2.963e-05
-2.15252e-06
-1.83216e-05
-1.8928e-06
-0.000102778
8.74815e-06
3.24823e-05
3.07966e-05
-0.000103662
-3.6156e-05
2.02426e-05
8.39117e-05
4.75266e-06
-1.31455e-05
3.19694e-05
7.14557e-07
-3.71367e-05
-7.51379e-05
-6.92124e-05
-2.21236e-06
-7.09705e-05
1.36695e-06
-4.37518e-05
5.21013e-05
-3.20331e-05
-2.11226e-05
9.38191e-06
-1.06054e-06
4.85138e-06
-2.59294e-05
5.72978e-05
-2.03841e-05
4.02208e-05
1.71226e-05
-4.3611e-05
4.79107e-06
-4.09896e-05
-3.4913e-07
2.30946e-05
-3.31627e-05
1.3449e-05
1.23583e-05
-2.61037e-05
-4.63814e-05
1.1768e-05
-4.40206e-05
0.000100773
4.16172e-05
5.95754e-05
5.72705e-06
3.63518e-06
3.72173e-05
-2.83872e-05
-2.65327e-05
-3.87032e-05
-3.32444e-05
-2.94507e-06
-4.83461e-06
-7.42387e-05
-9.2118e-05
-4.12925e-05
9.36042e-05
1.79686e-05
2.4614e-05
5.07897e-05
-3.90916e-05
-4.86934e-05
-6.07768e-05
2.91872e-05
-7.01523e-05
2.3977e-05
5.71007e-05
1.43815e-05
-8.54449e-05
6.48927e-05
5.64114e-06
1.15008e-05
-0.000120717
5.33743e-05
7.36078e-05
5.39119e-06
1.38733e-05
1.18412e-05
-9.65141e-06
3.66953e-05
-3.03434e-05
4.7182e-05
6.17248e-05
-4.68036e-06
-4.04329e-05
-2.98405e-05
4.83333e-06
-1.19198e-06
4.3695e-05
-1.84937e-06
-1.13773e-05
-1.70621e-05
7.82476e-05
-4.58397e-06
1.7914e-05
-3.62854e-05
-7.78633e-05
7.38347e-05
-9.19305e-05
-5.20854e-06
2.09286e-05
2.30619e-06
7.05892e-05
3.83812e-05
7.42101e-06
5.50142e-05
-1.01444e-05
4.60942e-05
-1.68376e-05
-5.88746e-05
-4.91901e-05
5.14216e-05
5.45884e-05
-1.98534e-05
5.81007e-05
3.0201e-05
1.38805e-05
2.24964e-05
6.25568e-05
6.90203e-06
-8.80077e-05
-1.3425e-05
-5.00749e-06
4.87e-05
5.9925e-05
6.30917e-05
1.42632e-06
2.14427e-05
-2.66382e-05
-9.90427e-06
-6.22048e-05
-1.60283e-05
3.25947e-05
-3.85357e-05
-1.90412e-05
5.3153e-05
-2.28165e-05
1.541e-05
-4.23556e-05
-5.64847e-07
-5.11487e-05
-1.07908e-05
-0.000114607
2.06342e-05
1.91709e-05
7.28541e-05
2.73278e-05
-4.94905e-05
5.0578e-05
5.27872e-05
6.41991e-05
-7.9904e-06
4.43965e-05
-4.86517e-05
-2.58872e-05
-3.12892e-05
9.76645e-05
-4.46027e-05
-4.87093e-05
2.70447e-05
-5.04584e-05
1.36553e-05
-9.01835e-05
-0.000131355
6.04796e-05
5.67493e-05
-1.7009e-05
2.47729e-05
-9.10833e-06
5.16701e-05
-8.06585e-05
3.82909e-05
3.7834e-05
1.59069e-05
-7.97573e-06
-6.65523e-06
3.57421e-05
3.13774e-05
-9.32618e-05
-4.72961e-05
-9.38077e-05
-4.97691e-05
6.84744e-05
-3.54394e-05
9.14512e-06
-3.66224e-05
3.87209e-05
1.69344e-05
4.47606e-05
-5.40497e-05
2.94937e-05
6.61318e-05
1.22408e-05
-6.6429e-05
1.13377e-06
1.48164e-05
-1.3693e-05
6.08945e-05
-9.08854e-07
7.89309e-05
9.09704e-06
5.26161e-05
-9.66364e-05
3.41139e-05
6.60541e-06
-1.27825e-05
-4.4345e-05
-2.06708e-05
3.1509e-06
-9.30391e-07
-6.3061e-05
-0.000100799
-4.15873e-05
-9.15084e-05
-4.81862e-05
5.62919e-05
-1.52459e-05
-5.2291e-05
-2.41199e-05
-1.08286e-05
-4.57691e-05
-4.23092e-05
1.19051e-05
2.83616e-05
-1.41363e-05
-5.28248e-05
-6.13482e-05
1.77327e-05
1.07333e-05
-2.08275e-05
5.96304e-05
1.79058e-06
2.512e-05
-2.36353e-05
5.88672e-05
3.18952e-05
4.76106e-05
-7.3189e-05
7.22467e-05
-0.000100923
-6.24068e-06
6.49312e-05
8.48924e-06
3.23068e-05
-3.30666e-06
-4.32202e-05
2.3779e-06
1.99969e-05
-1.27291e-05
9.59379e-06
3.61397e-05
2.75425e-05
6.92133e-05
-2.72412e-06
-6.32241e-05
-6.14568e-06
-7.61088e-06
-1.0212e-05
4.45035e-05
5.20062e-06
2.67308e-05
-6.62962e-06
-4.79876e-06
-2.94804e-05
1.43547e-05
5.68945e-06
6.79197e-05
9.01241e-06
3.43911e-05
1.84246e-05
1.29042e-05
-4.46521e-05
3.45933e-05
3.36547e-05
1.93855e-06
-1.88095e-05
4.46874e-05
-5.23892e-05
6.75361e-05
7.74651e-05
6.37211e-06
8.13847e-05
-3.1811e-05
2.20669e-05
-1.73559e-05
-2.87805e-05
-6.86577e-05
1.1924e-05
2.4791e-05
1.23701e-05
-3.48671e-05
2.16784e-05
-2.20746e-05
-3.52541e-06
1.23347e-05
1.70921e-06
2.97126e-05
-6.88566e-05
-1.33738e-05
9.18957e-05
-3.43514e-05
1.47279e-05
-1.23638e-05
4.94565e-05
2.42066e-05
-4.44684e-05
5.05937e-05
0.000106778
9.66929e-05
6.52501e-05
8.90344e-07
-7.20692e-06
-1.14567e-05
6.66911e-05
-5.44812e-06
4.01794e-05
-2.3398e-05
4.17557e-05
-3.41274e-05
-2.13974e-05
6.28131e-06
-2.62643e-05
3.5821e-05
-8.93146e-05
4.69462e-05
-3.57551e-05
3.30254e-05
2.34644e-05
-9.97123e-05
2.21336e-05
3.57018e-05
-1.87471e-05
2.13259e-05
-6.78228e-05
2.71616e-05
-5.16975e-05
5.68139e-05
4.88438e-05
-1.74805e-05
3.8041e-05
4.54168e-05
1.17874e-05
-8.37981e-06
2.07494e-05
-2.05647e-05
5.28253e-05
-7.57062e-05
-4.26269e-05
-7.67258e-06
2.0499e-05
-1.54352e-05
-3.12331e-05
1.17399e-05
6.21649e-05
4.88082e-05
4.33624e-06
-0.000127571
-5.02242e-05
-6.86676e-05
-6.60992e-05
3.09135e-05
7.61504e-05
-7.01357e-05
-7.02997e-06
9.28529e-06
4.82406e-05
3.83961e-06
8.47294e-06
-6.75762e-05
-1.85833e-05
1.2174e-05
-8.66805e-06
-3.19525e-05
-1.4283e-05
3.18373e-06
7.32986e-06
1.82409e-05
2.56517e-05
-6.78841e-05
-4.71482e-06
3.49289e-05
-5.05331e-05
1.07936e-05
-1.50145e-05
-1.63054e-05
-2.95391e-05
9.53887e-05
2.63905e-05
-1.76695e-05
-2.15014e-05
-1.27987e-05
8.03312e-06
-1.35811e-05
2.63907e-05
-7.1855e-06
-1.90851e-05
2.17282e-05
5.39329e-05
-9.03431e-05
5.79042e-05
-1.44776e-05
-1.46058e-05
-3.83228e-05
-4.54385e-05
2.61618e-05
5.74826e-05
2.07163e-05
1.80583e-05
2.61944e-05
-7.22113e-06
-2.65975e-05
2.38706e-05
-3.81793e-05
-3.29991e-05
2.86617e-05
4.19584e-06
5.3414e-05
-1.29023e-05
-4.54637e-06
9.10496e-05
1.63321e-05
1.6914e-05
-4.63271e-05
3.55742e-05
-3.91714e-05
2.29463e-05
1.72229e-05
3.08594e-06
6.80585e-05
6.72808e-05
-1.70233e-05
-7.54709e-06
4.55863e-05
-1.23873e-05
-6.61262e-06
0.000122596
3.26277e-05
1.82127e-05
2.49492e-05
-5.22542e-05
-2.22394e-05
-5.70163e-05
1.30467e-06
7.69063e-06
2.41783e-05
1.07714e-05
-5.2068e-05
1.76708e-05
6.4493e-05
-6.11889e-05
5.44073e-05
-4.49317e-05
-7.05204e-05
6.23078e-06
3.27923e-05
4.70879e-05
1.32737e-06
1.32957e-05
-7.78601e-05
-2.81829e-05
-6.8926e-06
0.000112601
3.68475e-05
-3.34255e-05
4.8563e-05
3.18345e-05
1.1489e-05
6.94903e-05
0.000133271
-7.3859e-05
-4.20368e-05
-1.68972e-05
2.04116e-05
8.13312e-06
-1.95537e-05
3.47553e-05
5.05911e-05
-6.30398e-05
-4.22692e-05
1.79629e-05
5.70336e-05
-6.66128e-07
2.83979e-05
-3.47797e-05
-8.23163e-05
-3.16931e-05
-5.51026e-05
-1.69482e-05
6.4399e-05
-5.5777e-05
5.2521e-05
-0.00011234
-7.10649e-05
-1.52234e-05
-1.6027e-05
-3.593e-05
5.28323e-05
4.40273e-05
-4.7551e-06
-6.05781e-05
-2.03253e-05
1.72131e-05
2.40912e-05
-2.15003e-05
-3.80281e-05
1.84206e-05
-5.22967e-05
-1.48038e-05
-9.04261e-05
-1.86135e-05
-1.40986e-05
0.000121307
-2.54706e-05
5.25208e-05
3.79474e-05
3.11935e-05
-3.85303e-05
-5.1026e-06
-4.49662e-05
2.62944e-05
1.12427e-05
-1.8605e-05
1.74431e-05
-3.76217e-05
8.71101e-06
-3.17956e-05
7.14653e-05
-7.47016e-05
0.000101809
5.19648e-05
3.18051e-05
1.9415e-05
4.63659e-05
-3.00468e-06
1.62399e-05
7.9999e-05
3.6757e-06
-1.37992e-05
-5.21087e-05
-5.62186e-05
2.68221e-05
-3.78018e-05
-4.78236e-05
2.88634e-05
-2.68996e-05
-1.16549e-05
-5.02809e-05
3.10763e-05
-2.00595e-05
3.81093e-05
-8.71737e-05
-4.69051e-05
1.67186e-05
4.92432e-05
9.12813e-06
1.42574e-06
-6.69421e-05
-7.27305e-05
-1.43619e-05
-9.74431e-06
-1.56981e-05
2.67378e-05
-9.21226e-05
-5.88647e-05
-1.25881e-05
5.10606e-05
-8.9749e-05
7.86015e-05
1.30903e-05
1.5168e-05
-0.000114672
-4.19713e-05
1.06478e-05
8.84151e-05
-6.75302e-06
-6.93055e-06
1.08085e-05
-9.15199e-05
-1.49587e-05
1.07784e-05
5.18085e-05
-3.28289e-05
4.25933e-05
9.43092e-06
7.85687e-07
4.03607e-05
-3.83495e-06
2.66726e-05
-2.21877e-05
6.10831e-07
2.16439e-06
1.83085e-05
-2.01633e-05
-7.52346e-05
-8.2016e-05
-4.08832e-05
3.06887e-05
3.11447e-05
-1.76036e-05
-1.1489e-05
3.875e-05
9.27399e-06
1.17533e-05
-4.44879e-05
-5.27482e-05
-4.26525e-05
9.6072e-05
-3.91064e-05
-6.17562e-05
-4.51251e-05
4.72006e-06
-4.15778e-05
-1.74798e-06
2.57662e-05
4.81147e-05
-3.50769e-05
2.89143e-05
3.42634e-05
2.19494e-05
-2.03151e-05
-2.84297e-05
2.95844e-05
6.2326e-05
1.81497e-05
-1.7709e-05
-4.22895e-05
-3.51784e-06
6.32225e-05
3.54694e-06
7.63254e-06
-5.29364e-06
1.017e-05
2.74983e-05
2.9136e-05
-2.60759e-05
-5.97399e-05
8.67881e-05
3.29312e-05
-1.45724e-05
-1.42367e-05
5.72905e-05
3.8431e-06
9.81885e-05
0.000121367
-2.85935e-05
2.49981e-05
7.872e-06
-1.86719e-05
-1.70153e-05
-7.32376e-05
0.00011208
-1.25973e-05
-6.01781e-05
7.86257e-06
3.08845e-05
9.78308e-06
7.8408e-06
1.71361e-05
4.8778e-08
-2.67223e-05
-2.56815e-05
-4.13363e-05
-4.55836e-05
-1.76242e-05
-7.76595e-06
-4.82684e-05
7.13976e-05
1.64241e-05
3.01739e-05
-3.19602e-05
1.39843e-05
-1.39403e-05
-1.55892e-05
4.47617e-06
-1.65855e-05
8.27662e-05
5.56018e-05
5.6728e-06
3.54119e-05
2.86219e-06
-1.63062e-05
2.07493e-05
9.63185e-06
-1.45016e-05
-4.88878e-05
-4.07483e-05
-9.69181e-06
4.12578e-05
-2.15805e-05
-3.41531e-05
5.64967e-05
-1.37314e-05
-5.04199e-05
3.84739e-05
-2.33623e-05
-1.19628e-06
-5.94471e-05
5.95243e-06
6.40077e-05
-7.39722e-05
-2.23713e-05
-4.28886e-06
-7.43155e-05
-1.581e-05
5.60058e-05
-2.41019e-05
5.20146e-05
4.58728e-05
-3.16426e-05
0.000122277
2.89965e-05
1.20703e-05
-2.74094e-05
-3.44678e-05
-3.20191e-05
5.98459e-05
4.27905e-05
-2.54271e-05
-1.62859e-05
4.25265e-05
4.55981e-05
-7.08053e-05
-4.5384e-05
-1.75914e-05
6.00136e-05
3.70808e-05
4.36977e-05
-7.64534e-06
2.17553e-05
1.48435e-05
1.47813e-05
3.49522e-05
1.44991e-05
-7.17351e-05
5.90791e-05
3.93528e-05
-1.62123e-05
4.7453e-05
-1.84561e-05
-3.84231e-05
8.46094e-05
5.78983e-05
5.29933e-05
-2.82945e-05
-1.4026e-05
-3.38187e-06
6.56869e-05
1.70167e-05
1.81668e-05
-1.4518e-05
-3.22154e-05
8.30204e-06
5.70649e-05
3.72092e-05
6.89619e-05
3.92867e-05
3.07859e-05
-1.59345e-05
4.17504e-05
8.47271e-06
-3.21826e-05
-1.07549e-05
-1.45924e-05
5.3932e-05
1.21887e-05
2.1124e-05
-2.64749e-05
1.12987e-05
-2.39075e-05
-1.44509e-05
1.09978e-05
-7.73533e-06
4.69002e-06
1.68596e-05
6.6706e-05
1.57988e-05
-0.00010758
-8.24991e-05
6.52228e-06
-5.85078e-05
5.17323e-05
1.84862e-05
1.66774e-05
-7.07679e-05
5.68538e-06
-1.86221e-05
-4.33435e-05
5.83283e-05
-4.15355e-05
-7.76742e-05
-1.33209e-05
-3.74748e-05
-1.10012e-06
5.06311e-05
3.43451e-05
5.21401e-05
2.95317e-05
4.7144e-05
-2.02372e-05
0.000134812
5.51662e-05
-3.82708e-05
-1.12221e-05
0.000111733
1.1283e-06
-1.38341e-05
-2.07324e-05
-1.05335e-05
5.75138e-06
2.51082e-05
-6.47182e-05
1.22271e-06
0.00011825
2.02315e-05
-6.96785e-05
-8.34581e-05
9.06892e-05
4.2955e-05
-6.09942e-05
-2.33622e-06
4.52402e-06
-2.48617e-05
-7.49843e-05
-6.3011e-06
3.3979e-05
6.28858e-05
-2.65869e-06
-2.97542e-05
-6.67728e-05
-1.08316e-05
7.42264e-06
3.03185e-05
-1.26918e-05
1.26482e-05
-3.24745e-05
-1.54041e-05
4.65959e-05
-6.06524e-07
-7.33238e-05
-3.6117e-05
3.19344e-05
5.07127e-05
5.52048e-05
-3.86608e-05
-2.71015e-05
-1.73203e-06
4.00441e-05
-1.28824e-05
1.15238e-05
2.75382e-05
1.51e-05
2.02368e-05
3.27821e-05
-0.000103584
-2.37203e-05
5.62994e-05
-3.56052e-05
-8.56419e-05
0.000101617
-2.90697e-05
2.15789e-05
-5.19506e-05
6.2933e-06
-5.95585e-05
3.80201e-06
-4.01154e-05
2.21783e-05
-9.73791e-06
6.35822e-05
-2.76126e-05
-2.54394e-05
9.06726e-05
-5.55883e-05
-3.51442e-05
1.4781e-05
-2.30938e-05
3.4685e-05
-4.10144e-05
-1.09316e-05
2.98412e-05
3.45649e-05
-4.78459e-05
-5.78742e-05
-3.72989e-05
3.5862e-05
-1.02358e-05
-1.76756e-05
3.83472e-05
4.55091e-06
-3.0726e-05
-6.31745e-05
6.1905e-06
-5.68887e-05
0.000120349
-0.000117728
-6.80868e-05
1.01872e-05
-1.02163e-05
2.8216e-05
-1.96022e-05
-6.25581e-06
3.50748e-05
9.93139e-06
-5.96486e-05
5.40578e-05
-2.97579e-05
-7.25733e-07
-9.39099e-06
-2.64798e-05
5.89007e-05
9.35841e-05
7.95007e-05
-1.68921e-05
-6.82934e-05
-7.77037e-05
4.75622e-05
-1.31701e-06
1.17447e-05
5.16309e-05
-6.31512e-05
2.21431e-05
3.45721e-05
-3.89622e-05
4.92728e-05
9.85328e-06
-2.73689e-05
-7.18011e-05
-2.20723e-06
9.41264e-06
5.68591e-05
-2.01396e-05
-8.62207e-06
7.08969e-06
9.57632e-07
-2.91979e-05
-3.67721e-05
9.86853e-07
-7.08317e-06
-7.77077e-05
4.07123e-05
2.28044e-05
-2.33536e-05
-2.82733e-05
6.35511e-06
-3.10619e-05
-2.37788e-05
5.87651e-05
3.77757e-05
-8.88547e-05
1.88745e-05
2.82149e-05
2.42067e-05
-1.97266e-05
3.13714e-05
2.67725e-05
-2.78914e-05
-1.14412e-05
4.39794e-05
-1.8472e-05
6.28945e-06
-9.41602e-06
3.67073e-05
-1.65385e-05
-2.21912e-05
-3.2634e-05
2.11539e-05
-9.05287e-05
-2.25267e-05
7.17805e-06
-1.67808e-05
-5.12955e-05
-4.15266e-05
3.02584e-05
1.87581e-05
1.34516e-05
6.79976e-05
0.000103677
-2.68694e-05
-5.62215e-05
-7.36827e-06
-8.72917e-06
-8.2209e-06
-0.000119192
3.07664e-05
9.97081e-05
7.93553e-05
2.3524e-05
2.89513e-06
3.23564e-05
6.61914e-06
-1.27403e-05
-1.1237e-05
3.50212e-06
6.08939e-05
-6.73463e-06
5.99332e-05
-9.10787e-06
-4.93437e-05
-1.2501e-05
-1.79211e-05
3.41778e-05
-3.37975e-05
7.3954e-06
5.94537e-05
0.000102923
1.58969e-05
2.07429e-06
6.60841e-05
-5.49528e-05
-6.42198e-05
4.83613e-06
5.86053e-05
-3.53623e-05
-0.000113618
-3.21863e-05
8.25233e-06
3.03726e-05
4.09456e-06
1.2588e-05
-2.57911e-05
4.0303e-06
-1.99424e-05
-0.000115459
-8.30297e-06
2.34318e-05
1.67678e-05
-9.89973e-06
-1.77943e-05
3.4106e-05
5.38377e-05
-8.89879e-07
-3.26859e-05
-1.44829e-05
1.08392e-05
2.86292e-05
1.41959e-05
-1.13212e-05
4.36339e-05
-9.70019e-06
4.36599e-05
-6.26035e-06
-6.49594e-05
8.33399e-05
7.37363e-06
-2.33594e-05
-5.29964e-05
8.21881e-06
-7.6708e-05
-5.47343e-05
1.6999e-05
-2.35284e-05
6.93037e-05
-5.89248e-05
-1.5897e-05
-3.79665e-06
-4.36556e-05
1.74937e-06
6.90878e-06
-1.56339e-05
-1.2681e-05
-6.3132e-06
-2.87471e-05
6.3584e-05
-1.27369e-05
2.98875e-05
-1.94592e-05
0.00010666
-6.87314e-05
2.64298e-06
7.97828e-05
-7.2899e-05
-2.11629e-05
-1.829e-06
-5.65464e-06
-3.0719e-05
-1.6659e-07
6.13104e-05
-4.53601e-05
-3.93682e-06
2.74235e-05
5.10013e-05
6.30179e-06
2.15229e-05
-5.93148e-05
-4.52383e-05
-4.56917e-05
-4.39738e-05
-2.38917e-05
-5.03428e-05
-2.24273e-05
-6.28912e-05
1.11944e-05
0.000117077
1.0884e-05
1.60339e-06
7.11612e-06
-1.24831e-05
-9.79607e-05
1.17281e-05
-2.4335e-05
-6.52868e-05
-4.57343e-05
9.77496e-05
-2.8451e-05
2.46849e-05
2.89712e-05
-3.39515e-05
9.19257e-05
-5.06376e-05
-3.13991e-05
4.17233e-07
2.26258e-05
5.2394e-05
-4.63506e-05
3.01923e-06
-7.2588e-05
3.62427e-05
4.53803e-05
5.10281e-05
4.96125e-05
1.14623e-05
6.31425e-06
1.38571e-05
1.41445e-06
1.35629e-05
-5.94303e-05
-5.26091e-05
-3.14449e-05
3.6899e-05
-1.13051e-06
4.3941e-06
1.65978e-05
1.01101e-05
-4.56736e-05
-5.6707e-05
-2.16059e-05
3.75393e-06
3.02102e-05
2.47179e-05
-3.70546e-05
-4.6816e-05
-8.03267e-05
-3.89204e-05
8.46449e-05
4.35199e-05
1.98977e-05
-8.17562e-06
-6.95745e-06
-5.38763e-05
3.58436e-05
-6.18512e-05
7.90429e-05
-1.59482e-05
-3.99175e-05
-6.26179e-05
3.51216e-05
5.15338e-05
1.97033e-06
-3.47092e-06
-9.94932e-06
5.45719e-05
-4.3594e-05
-3.20032e-05
3.58509e-05
-2.33699e-05
-7.19377e-06
3.16272e-05
-2.36786e-05
4.79091e-05
6.11597e-05
-1.50185e-05
5.8336e-05
-1.60112e-05
-5.55501e-05
-4.11178e-05
3.92951e-05
8.73664e-05
-9.01869e-06
2.39067e-05
5.31232e-05
-2.11841e-06
3.75921e-05
-6.11141e-05
-5.3782e-05
4.7565e-05
-2.97434e-05
-7.41591e-05
-1.30143e-05
3.82867e-06
-4.95901e-05
-1.00629e-05
1.4806e-05
3.36685e-06
-4.77558e-05
-3.26614e-05
4.77978e-06
4.40961e-05
4.04306e-05
-4.65771e-05
-4.65793e-05
9.95386e-06
6.58098e-05
1.77756e-05
-1.76015e-05
-0.000102062
4.74706e-05
-2.01666e-05
-7.77596e-06
-8.79937e-06
4.50332e-05
-5.59201e-06
-5.70056e-05
-1.93109e-05
-3.39668e-05
4.75904e-05
2.16513e-05
-2.22098e-05
-2.47788e-05
-2.54153e-05
-5.89085e-06
-1.15659e-05
-4.13184e-05
-4.02359e-05
1.2063e-06
-4.48257e-05
2.04252e-05
3.38047e-06
-2.82911e-05
3.01644e-05
9.34862e-06
-6.71302e-05
-4.05741e-05
7.09335e-05
-3.39554e-05
-2.67513e-05
2.17735e-05
1.5636e-05
1.44397e-05
-8.90146e-06
-1.19939e-05
1.44325e-05
8.70283e-05
-9.69972e-07
1.24228e-05
-5.5928e-05
-1.92774e-05
3.90812e-05
3.06999e-06
-4.05499e-05
7.5656e-06
6.7285e-05
3.94989e-05
-7.47538e-05
-3.48645e-05
2.46887e-05
-5.16155e-05
3.76732e-06
-4.08549e-05
-1.83191e-05
8.32832e-05
-3.53504e-05
-3.56362e-05
-9.10205e-06
-2.37034e-05
-7.6158e-05
-4.3174e-05
-3.44525e-05
3.03319e-05
-5.93204e-05
-4.43422e-05
-1.38485e-05
2.80138e-05
4.43449e-05
7.11263e-06
-4.18513e-07
-3.37958e-05
5.63174e-05
4.62118e-05
-7.51618e-05
0.000106832
-4.85468e-05
-1.38159e-05
-8.40984e-07
-1.4761e-05
-6.56999e-05
-1.55217e-05
-5.29073e-06
1.81824e-05