# vtk DataFile Version 1.0
Electron Density - Current Sheet 
ASCII
DATASET STRUCTURED_POINTS
DIMENSIONS 256 128 1
ORIGIN 0 0 0
SPACING 0.15625 0.15625 1
POINT_DATA 32768
SCALARS rhoe float
LOOKUP_TABLE default
-1.72137e-18
-1.82578e-18
-1.9288e-18
-1.64438e-18
-1.82318e-18
-1.80315e-18
-1.9008e-18
-1.9595e-18
-1.96062e-18
-1.90236e-18
-1.93711e-18
-1.92202e-18
-1.76678e-18
-1.69521e-18
-2.01186e-18
-1.9444e-18
-1.92596e-18
-1.83411e-18
-1.76415e-18
-2.0454e-18
-2.03735e-18
-2.05905e-18
-1.88525e-18
-2.00578e-18
-2.09219e-18
-1.78605e-18
-1.8562e-18
-1.73324e-18
-1.82922e-18
-1.94746e-18
-1.92151e-18
-1.87518e-18
-1.80232e-18
-1.79533e-18
-2.04063e-18
-1.6309e-18
-1.89646e-18
-2.09159e-18
-1.87601e-18
-1.65623e-18
-1.83776e-18
-1.68553e-18
-2.02946e-18
-1.87388e-18
-1.56207e-18
-1.76044e-18
-1.87828e-18
-1.87571e-18
-1.93904e-18
-1.91905e-18
-1.80995e-18
-1.99287e-18
-1.88217e-18
-1.69922e-18
-1.76822e-18
-2.15549e-18
-1.68629e-18
-1.6044e-18
-1.59045e-18
-1.7324e-18
-1.63482e-18
-1.76225e-18
-1.98952e-18
-1.85839e-18
-1.925e-18
-1.62164e-18
-1.77549e-18
-1.97327e-18
-1.83967e-18
-2.01562e-18
-1.95367e-18
-1.90285e-18
-1.50254e-18
-1.83418e-18
-1.8028e-18
-2.06864e-18
-1.97919e-18
-1.69015e-18
-1.66778e-18
-1.92441e-18
-1.80864e-18
-1.9998e-18
-1.99434e-18
-1.65619e-18
-2.18991e-18
-1.80443e-18
-1.74498e-18
-2.04428e-18
-1.88418e-18
-1.85325e-18
-1.88619e-18
-1.80653e-18
-1.71434e-18
-1.7453e-18
-2.12848e-18
-1.82765e-18
-1.93234e-18
-1.85247e-18
-1.98795e-18
-1.76764e-18
-1.68649e-18
-1.72804e-18
-1.98174e-18
-1.92427e-18
-1.97204e-18
-1.93588e-18
-1.72157e-18
-1.87422e-18
-1.98914e-18
-2.02704e-18
-1.8728e-18
-1.83489e-18
-1.83798e-18
-1.56521e-18
-1.72717e-18
-2.01627e-18
-2.08015e-18
-1.95137e-18
-1.70606e-18
-2.06562e-18
-2.00275e-18
-1.73751e-18
-1.72342e-18
-1.83036e-18
-1.771e-18
-1.83626e-18
-1.90598e-18
-1.8079e-18
-1.62799e-18
-1.99305e-18
-1.79237e-18
-1.79216e-18
-2.05405e-18
-2.11007e-18
-1.73224e-18
-2.04452e-18
-1.75069e-18
-1.8826e-18
-1.81516e-18
-1.88422e-18
-1.65471e-18
-2.06689e-18
-1.86323e-18
-1.6205e-18
-1.90713e-18
-1.80805e-18
-1.7085e-18
-1.88179e-18
-2.08144e-18
-1.85194e-18
-1.88675e-18
-1.79749e-18
-1.86715e-18
-1.95889e-18
-1.89258e-18
-1.82269e-18
-1.99242e-18
-2.1666e-18
-1.84926e-18
-1.87577e-18
-1.60495e-18
-1.8779e-18
-2.11084e-18
-1.98405e-18
-2.09536e-18
-1.7671e-18
-1.8613e-18
-1.80018e-18
-1.84752e-18
-1.90221e-18
-1.97871e-18
-1.8169e-18
-2.20634e-18
-1.59951e-18
-2.23849e-18
-2.02192e-18
-1.89999e-18
-1.85065e-18
-2.00008e-18
-1.86525e-18
-1.77912e-18
-1.93918e-18
-1.8949e-18
-2.027e-18
-1.9937e-18
-1.43806e-18
-1.83535e-18
-1.83016e-18
-1.90985e-18
-1.92049e-18
-1.93982e-18
-1.89569e-18
-1.67003e-18
-1.96235e-18
-1.94785e-18
-1.80569e-18
-1.81516e-18
-1.71623e-18
-1.77905e-18
-1.70867e-18
-1.93961e-18
-1.84614e-18
-1.69634e-18
-1.79974e-18
-1.4952e-18
-2.03728e-18
-1.88903e-18
-1.82385e-18
-1.78885e-18
-1.71391e-18
-1.75888e-18
-1.89615e-18
-1.87765e-18
-1.76283e-18
-1.85204e-18
-1.68651e-18
-1.63169e-18
-2.20063e-18
-1.95214e-18
-1.89673e-18
-1.81162e-18
-1.83325e-18
-2.05336e-18
-1.92448e-18
-1.80666e-18
-1.80496e-18
-1.85166e-18
-1.85779e-18
-1.91512e-18
-1.94548e-18
-1.99385e-18
-1.91068e-18
-1.82383e-18
-2.20309e-18
-1.86932e-18
-1.59118e-18
-1.9952e-18
-1.90817e-18
-1.82176e-18
-1.59515e-18
-1.91885e-18
-2.08598e-18
-1.82966e-18
-1.86914e-18
-1.69739e-18
-2.00639e-18
-1.79528e-18
-1.92011e-18
-1.92532e-18
-1.83449e-18
-1.91259e-18
-1.87983e-18
-1.76255e-18
-1.69366e-18
-1.77138e-18
-1.83518e-18
-2.63861e-18
-2.84552e-18
-3.0245e-18
-3.00623e-18
-2.77205e-18
-3.00179e-18
-2.61078e-18
-2.83878e-18
-2.74019e-18
-2.58538e-18
-2.65402e-18
-2.93195e-18
-3.0356e-18
-2.67484e-18
-2.62301e-18
-2.86643e-18
-2.92302e-18
-2.96624e-18
-2.93722e-18
-2.64102e-18
-2.77674e-18
-2.75964e-18
-2.80593e-18
-2.701e-18
-3.10256e-18
-2.6386e-18
-2.84772e-18
-2.57956e-18
-2.8515e-18
-2.94386e-18
-2.94791e-18
-2.55756e-18
-2.78921e-18
-2.793e-18
-2.96185e-18
-2.79864e-18
-3.08667e-18
-2.81209e-18
-2.9067e-18
-2.76184e-18
-2.79913e-18
-2.62956e-18
-3.08113e-18
-2.76935e-18
-2.72667e-18
-2.82004e-18
-3.00641e-18
-2.88311e-18
-2.49581e-18
-2.93334e-18
-2.83785e-18
-2.82093e-18
-2.83755e-18
-2.94553e-18
-2.60586e-18
-2.64204e-18
-2.86919e-18
-2.79375e-18
-2.69417e-18
-2.86417e-18
-2.85852e-18
-3.02242e-18
-2.79124e-18
-2.64585e-18
-2.87705e-18
-2.78291e-18
-3.01538e-18
-2.88922e-18
-2.6926e-18
-2.87163e-18
-2.94508e-18
-2.89463e-18
-2.83794e-18
-2.94682e-18
-2.88083e-18
-2.70681e-18
-2.60108e-18
-2.78254e-18
-2.75601e-18
-2.83805e-18
-2.87797e-18
-2.76822e-18
-2.70106e-18
-2.56676e-18
-2.53336e-18
-2.81264e-18
-3.02209e-18
-2.95828e-18
-2.74035e-18
-2.70297e-18
-3.12328e-18
-2.82698e-18
-2.63145e-18
-2.64748e-18
-2.8229e-18
-2.97298e-18
-2.87892e-18
-2.75926e-18
-2.83352e-18
-2.81537e-18
-2.69974e-18
-2.97513e-18
-2.83637e-18
-2.88331e-18
-2.78535e-18
-2.7228e-18
-2.64265e-18
-3.01361e-18
-3.01281e-18
-2.66295e-18
-2.68148e-18
-2.72996e-18
-2.8894e-18
-2.82491e-18
-2.6654e-18
-2.93157e-18
-2.80508e-18
-2.80921e-18
-2.68279e-18
-2.83422e-18
-2.96201e-18
-2.97845e-18
-3.01465e-18
-2.41389e-18
-2.84901e-18
-2.86902e-18
-3.20994e-18
-2.97939e-18
-2.78816e-18
-2.79557e-18
-2.7804e-18
-2.8969e-18
-2.95856e-18
-2.88266e-18
-2.37759e-18
-2.67855e-18
-2.83258e-18
-2.97078e-18
-2.80558e-18
-2.83455e-18
-2.62437e-18
-2.77511e-18
-2.81761e-18
-3.02135e-18
-3.00433e-18
-2.95551e-18
-2.66717e-18
-2.81486e-18
-2.71941e-18
-2.74252e-18
-2.93961e-18
-2.95743e-18
-2.9484e-18
-2.98795e-18
-2.75344e-18
-2.92741e-18
-3.0292e-18
-2.84753e-18
-2.76658e-18
-2.81556e-18
-2.52413e-18
-2.94386e-18
-2.93467e-18
-2.73732e-18
-3.00265e-18
-2.9208e-18
-2.68854e-18
-2.78573e-18
-2.64925e-18
-2.86646e-18
-2.8216e-18
-2.97108e-18
-2.88615e-18
-2.77731e-18
-2.8192e-18
-2.86738e-18
-2.69944e-18
-2.86166e-18
-2.87109e-18
-2.7393e-18
-2.67123e-18
-2.8117e-18
-2.65435e-18
-2.87723e-18
-2.85918e-18
-2.71438e-18
-2.55936e-18
-2.65413e-18
-2.69755e-18
-2.84535e-18
-2.90789e-18
-2.73576e-18
-2.64006e-18
-2.85162e-18
-2.8245e-18
-2.88223e-18
-2.79665e-18
-2.84458e-18
-2.67513e-18
-2.94796e-18
-2.76808e-18
-2.88746e-18
-3.00923e-18
-2.5425e-18
-2.71224e-18
-2.87509e-18
-2.78605e-18
-3.03823e-18
-3.0183e-18
-2.98643e-18
-2.82398e-18
-2.95148e-18
-2.67374e-18
-2.98854e-18
-2.88807e-18
-2.787e-18
-2.81689e-18
-2.75823e-18
-2.72864e-18
-3.01938e-18
-2.65655e-18
-2.82834e-18
-3.0957e-18
-2.85873e-18
-2.7398e-18
-2.79938e-18
-2.98406e-18
-2.69632e-18
-2.62595e-18
-2.83353e-18
-2.46605e-18
-2.76027e-18
-2.67443e-18
-2.95063e-18
-2.90085e-18
-2.85155e-18
-2.72876e-18
-2.67141e-18
-2.88845e-18
-2.73205e-18
-2.75143e-18
-2.9244e-18
-2.62457e-18
-2.80789e-18
-2.76949e-18
-2.77561e-18
-2.52535e-18
-2.86744e-18
-3.11624e-18
-2.66897e-18
-2.62415e-18
-2.8358e-18
-3.04709e-18
-2.79082e-18
-3.07552e-18
-2.94022e-18
-5.49278e-18
-5.0652e-18
-5.82382e-18
-5.09404e-18
-5.2608e-18
-5.83538e-18
-4.9949e-18
-4.74828e-18
-5.22016e-18
-5.17381e-18
-4.74612e-18
-5.16979e-18
-5.71356e-18
-5.43301e-18
-5.16597e-18
-4.99354e-18
-5.45483e-18
-5.1569e-18
-5.45784e-18
-4.72042e-18
-4.84285e-18
-4.94572e-18
-5.65053e-18
-5.22382e-18
-4.98492e-18
-4.91576e-18
-5.1478e-18
-4.86106e-18
-4.84118e-18
-5.22141e-18
-4.90058e-18
-5.07582e-18
-4.99456e-18
-5.24601e-18
-5.0352e-18
-5.07582e-18
-5.37743e-18
-5.2494e-18
-5.62677e-18
-5.10016e-18
-4.87668e-18
-5.26726e-18
-5.70535e-18
-4.7367e-18
-5.35717e-18
-5.19078e-18
-5.48447e-18
-5.31247e-18
-5.03111e-18
-4.98103e-18
-5.21957e-18
-5.03424e-18
-5.31618e-18
-5.18502e-18
-4.81763e-18
-5.29823e-18
-4.83338e-18
-5.4926e-18
-5.24265e-18
-5.77294e-18
-5.22049e-18
-5.35251e-18
-5.16426e-18
-4.91704e-18
-4.98438e-18
-5.23911e-18
-5.0547e-18
-5.66626e-18
-4.5926e-18
-4.92233e-18
-5.00933e-18
-5.10164e-18
-5.0576e-18
-5.3067e-18
-5.37685e-18
-5.49277e-18
-5.47521e-18
-5.30755e-18
-5.25868e-18
-5.56666e-18
-4.96287e-18
-5.04912e-18
-4.65864e-18
-5.36464e-18
-4.93822e-18
-5.10046e-18
-5.20353e-18
-4.8678e-18
-4.8353e-18
-5.14986e-18
-5.29589e-18
-4.96282e-18
-5.39189e-18
-5.44116e-18
-4.95608e-18
-5.20936e-18
-5.15294e-18
-5.11874e-18
-4.91038e-18
-5.06647e-18
-4.69479e-18
-5.1008e-18
-5.48988e-18
-4.7841e-18
-5.17422e-18
-4.72487e-18
-4.93529e-18
-4.79242e-18
-5.49423e-18
-5.08494e-18
-5.28267e-18
-5.09104e-18
-5.46487e-18
-5.01129e-18
-5.14161e-18
-5.24997e-18
-5.07107e-18
-5.05076e-18
-5.09338e-18
-4.96034e-18
-5.492e-18
-5.06459e-18
-5.19726e-18
-5.28323e-18
-5.20621e-18
-4.85661e-18
-5.56614e-18
-5.06641e-18
-4.83372e-18
-5.26155e-18
-5.47911e-18
-5.01414e-18
-4.80815e-18
-5.28103e-18
-5.18219e-18
-5.35882e-18
-4.92871e-18
-5.00163e-18
-5.20455e-18
-5.07176e-18
-4.90207e-18
-4.84537e-18
-5.32702e-18
-4.92381e-18
-5.09115e-18
-5.64722e-18
-4.97383e-18
-5.4254e-18
-5.08826e-18
-4.90813e-18
-5.01844e-18
-4.88839e-18
-4.96365e-18
-5.02431e-18
-5.14563e-18
-4.75042e-18
-4.98647e-18
-5.32085e-18
-5.56e-18
-5.34315e-18
-5.31423e-18
-5.36074e-18
-5.22039e-18
-4.30883e-18
-5.0563e-18
-5.34653e-18
-5.26204e-18
-5.29509e-18
-4.7835e-18
-4.92613e-18
-5.11511e-18
-5.1946e-18
-5.39391e-18
-5.23386e-18
-5.03597e-18
-5.07796e-18
-5.10396e-18
-5.14036e-18
-5.38455e-18
-4.98466e-18
-4.8354e-18
-5.70542e-18
-5.08193e-18
-4.82717e-18
-5.632e-18
-5.39285e-18
-5.10437e-18
-4.654e-18
-5.52152e-18
-5.07481e-18
-5.00673e-18
-5.2845e-18
-5.26823e-18
-5.45222e-18
-5.39166e-18
-5.31278e-18
-5.57394e-18
-4.92885e-18
-4.64632e-18
-5.26779e-18
-5.37814e-18
-4.85951e-18
-4.91105e-18
-5.5104e-18
-5.28818e-18
-4.65195e-18
-5.2699e-18
-5.72692e-18
-5.37126e-18
-4.86725e-18
-5.01748e-18
-4.90086e-18
-5.13712e-18
-5.27196e-18
-5.00261e-18
-4.93949e-18
-5.40361e-18
-5.15717e-18
-5.1509e-18
-5.44335e-18
-4.8683e-18
-5.35564e-18
-5.51924e-18
-5.15765e-18
-4.66359e-18
-5.35057e-18
-5.40909e-18
-5.11151e-18
-5.82562e-18
-5.27698e-18
-4.88456e-18
-5.318e-18
-4.71257e-18
-5.36552e-18
-5.39126e-18
-4.99766e-18
-5.56567e-18
-5.39512e-18
-5.44748e-18
-5.38642e-18
-5.27509e-18
-5.30789e-18
-4.7663e-18
-5.50423e-18
-5.36549e-18
-5.28828e-18
-5.34121e-18
-5.10127e-18
-5.03458e-18
-5.09936e-18
-5.39173e-18
-5.61471e-18
-5.00733e-18
-5.2494e-18
-5.20278e-18
-5.53447e-18
-1.04345e-17
-9.95015e-18
-9.4065e-18
-9.36829e-18
-9.58526e-18
-9.26515e-18
-9.68058e-18
-9.10945e-18
-1.02781e-17
-9.10397e-18
-9.93048e-18
-1.05831e-17
-9.80584e-18
-9.10239e-18
-1.02534e-17
-9.4877e-18
-8.67195e-18
-1.06537e-17
-9.4367e-18
-8.95323e-18
-9.70973e-18
-9.58338e-18
-1.02808e-17
-9.67397e-18
-9.81274e-18
-9.77199e-18
-9.80517e-18
-9.69143e-18
-1.0228e-17
-1.03846e-17
-9.84824e-18
-9.45287e-18
-9.69899e-18
-1.00167e-17
-1.00846e-17
-9.97914e-18
-1.0563e-17
-1.00328e-17
-9.21485e-18
-1.0035e-17
-1.02035e-17
-8.82893e-18
-9.50735e-18
-1.01231e-17
-9.29674e-18
-9.78103e-18
-9.87808e-18
-1.00366e-17
-9.72843e-18
-9.99675e-18
-9.6944e-18
-9.72129e-18
-1.02263e-17
-9.4257e-18
-9.34835e-18
-1.05225e-17
-1.00559e-17
-9.40012e-18
-9.52797e-18
-1.01967e-17
-9.71577e-18
-9.78566e-18
-8.93201e-18
-9.74363e-18
-8.87978e-18
-8.88937e-18
-9.96174e-18
-1.00268e-17
-9.76562e-18
-1.03958e-17
-9.16878e-18
-9.62878e-18
-9.97191e-18
-9.5075e-18
-9.10456e-18
-9.62192e-18
-9.35521e-18
-1.01194e-17
-1.00139e-17
-9.63673e-18
-9.26479e-18
-1.03108e-17
-9.44938e-18
-9.95979e-18
-8.94005e-18
-9.30962e-18
-9.1374e-18
-9.89272e-18
-9.59785e-18
-1.0206e-17
-9.84943e-18
-1.02605e-17
-9.35822e-18
-1.01832e-17
-9.19917e-18
-9.28896e-18
-9.80284e-18
-1.01928e-17
-9.91786e-18
-1.00928e-17
-9.52747e-18
-9.00429e-18
-9.12928e-18
-9.88071e-18
-9.65796e-18
-9.73098e-18
-1.07418e-17
-1.01055e-17
-8.97987e-18
-9.57334e-18
-9.62372e-18
-9.56922e-18
-1.01213e-17
-8.96238e-18
-1.09852e-17
-9.57219e-18
-8.83584e-18
-1.01262e-17
-9.98456e-18
-9.86019e-18
-1.044e-17
-9.12831e-18
-9.28398e-18
-9.20984e-18
-9.07142e-18
-9.88921e-18
-1.02147e-17
-9.80913e-18
-9.52125e-18
-9.63463e-18
-9.60943e-18
-1.01017e-17
-1.06207e-17
-9.36946e-18
-1.04491e-17
-9.99002e-18
-9.10728e-18
-8.88408e-18
-9.55887e-18
-9.7325e-18
-9.47571e-18
-1.00799e-17
-1.10656e-17
-9.66807e-18
-9.39721e-18
-9.89138e-18
-8.87032e-18
-9.91252e-18
-1.01807e-17
-8.5511e-18
-9.59663e-18
-9.82404e-18
-9.55829e-18
-9.86048e-18
-9.95688e-18
-9.34979e-18
-9.84976e-18
-9.94284e-18
-1.01754e-17
-9.37558e-18
-9.14414e-18
-9.48939e-18
-9.22943e-18
-9.07842e-18
-1.0839e-17
-1.04077e-17
-1.00737e-17
-1.00524e-17
-9.03914e-18
-1.01302e-17
-9.74716e-18
-1.02068e-17
-1.01819e-17
-9.24281e-18
-9.15244e-18
-9.16398e-18
-1.09242e-17
-9.50026e-18
-9.18964e-18
-9.95943e-18
-9.4847e-18
-9.82947e-18
-9.47366e-18
-1.00045e-17
-9.68657e-18
-1.02031e-17
-1.05879e-17
-1.01427e-17
-9.81618e-18
-9.67273e-18
-9.27809e-18
-1.07456e-17
-8.95378e-18
-9.49273e-18
-1.03672e-17
-9.92789e-18
-9.7893e-18
-9.18927e-18
-9.37044e-18
-9.59571e-18
-9.86125e-18
-9.79925e-18
-9.76601e-18
-9.96973e-18
-1.00185e-17
-8.86837e-18
-9.40165e-18
-9.95827e-18
-9.31093e-18
-9.59963e-18
-1.00862e-17
-1.05136e-17
-1.02329e-17
-9.40352e-18
-1.00396e-17
-9.42385e-18
-9.98439e-18
-9.66952e-18
-9.74722e-18
-1.02189e-17
-9.56048e-18
-8.75051e-18
-9.81756e-18
-9.79745e-18
-9.4443e-18
-9.89369e-18
-1.04195e-17
-9.43791e-18
-1.04065e-17
-1.04524e-17
-8.86377e-18
-9.24527e-18
-9.72377e-18
-9.54212e-18
-9.7535e-18
-9.35243e-18
-9.72642e-18
-9.56991e-18
-1.03456e-17
-1.01752e-17
-9.17119e-18
-9.26421e-18
-8.62197e-18
-9.98703e-18
-9.41828e-18
-9.35984e-18
-1.03427e-17
-1.01016e-17
-1.08092e-17
-9.43925e-18
-9.36535e-18
-9.9606e-18
-9.49052e-18
-9.93031e-18
-9.66513e-18
-8.9391e-18
-1.78691e-17
-2.03429e-17
-1.80936e-17
-1.78229e-17
-1.87071e-17
-1.89977e-17
-1.82068e-17
-1.85429e-17
-1.91615e-17
-1.76364e-17
-1.76928e-17
-1.96917e-17
-1.94541e-17
-1.71139e-17
-1.8215e-17
-1.84888e-17
-1.9105e-17
-1.92799e-17
-1.68486e-17
-1.93349e-17
-1.95124e-17
-1.82612e-17
-1.85737e-17
-1.68728e-17
-1.76238e-17
-1.86576e-17
-1.82776e-17
-1.68107e-17
-1.85943e-17
-1.89208e-17
-1.82e-17
-1.82883e-17
-1.85242e-17
-1.77165e-17
-1.75149e-17
-1.90248e-17
-1.80077e-17
-1.84974e-17
-1.72665e-17
-1.64616e-17
-1.82e-17
-1.74518e-17
-1.88229e-17
-1.93586e-17
-1.71293e-17
-2.07286e-17
-1.83797e-17
-1.73201e-17
-1.83777e-17
-1.84187e-17
-1.69837e-17
-1.95477e-17
-1.79061e-17
-1.80303e-17
-1.79864e-17
-1.82153e-17
-1.75409e-17
-1.8709e-17
-1.865e-17
-1.66856e-17
-1.88158e-17
-1.91468e-17
-1.75391e-17
-1.86677e-17
-1.69446e-17
-1.70374e-17
-1.87626e-17
-1.94393e-17
-1.75515e-17
-1.86121e-17
-1.90753e-17
-1.77917e-17
-1.85066e-17
-1.77051e-17
-1.7036e-17
-1.87111e-17
-1.85858e-17
-1.78747e-17
-1.92821e-17
-1.92633e-17
-1.79888e-17
-1.85171e-17
-1.86617e-17
-1.82615e-17
-1.90126e-17
-1.80473e-17
-1.68582e-17
-1.89341e-17
-1.98986e-17
-1.7586e-17
-1.84102e-17
-1.97858e-17
-1.78145e-17
-1.69645e-17
-1.69269e-17
-1.90419e-17
-1.99016e-17
-1.7519e-17
-1.78148e-17
-2.07117e-17
-1.85141e-17
-1.7106e-17
-1.88613e-17
-1.84982e-17
-1.70016e-17
-1.83262e-17
-1.84527e-17
-1.74082e-17
-1.92429e-17
-1.80473e-17
-1.90375e-17
-1.95863e-17
-1.92727e-17
-1.69259e-17
-1.94204e-17
-1.75237e-17
-1.78948e-17
-1.83274e-17
-1.78503e-17
-1.77761e-17
-1.90014e-17
-1.77166e-17
-1.66521e-17
-1.78644e-17
-1.81657e-17
-1.81628e-17
-1.83574e-17
-1.78258e-17
-1.85776e-17
-1.78877e-17
-1.87714e-17
-2.04206e-17
-1.58382e-17
-1.71165e-17
-1.97702e-17
-1.96604e-17
-1.78737e-17
-1.79916e-17
-1.88232e-17
-1.92257e-17
-1.7412e-17
-1.84625e-17
-1.82465e-17
-1.83607e-17
-1.99011e-17
-1.9153e-17
-1.70652e-17
-1.7954e-17
-1.93228e-17
-1.74257e-17
-1.91014e-17
-1.79483e-17
-1.90333e-17
-1.68852e-17
-1.82663e-17
-1.96825e-17
-1.91918e-17
-1.80682e-17
-1.57924e-17
-1.9934e-17
-1.59726e-17
-1.98041e-17
-1.90996e-17
-1.81633e-17
-1.87733e-17
-1.87006e-17
-1.86614e-17
-1.60933e-17
-1.83136e-17
-1.99535e-17
-1.79912e-17
-1.69247e-17
-1.74009e-17
-1.83168e-17
-1.79667e-17
-1.97676e-17
-2.04251e-17
-1.72049e-17
-1.70812e-17
-1.93314e-17
-1.90606e-17
-1.84982e-17
-1.85806e-17
-1.8342e-17
-2.01232e-17
-1.72362e-17
-1.90135e-17
-1.89227e-17
-1.63521e-17
-1.59159e-17
-1.69477e-17
-1.87677e-17
-1.73965e-17
-1.68366e-17
-1.80043e-17
-1.78048e-17
-1.94956e-17
-1.78904e-17
-1.84979e-17
-1.83215e-17
-1.75501e-17
-1.87803e-17
-1.83417e-17
-2.12692e-17
-1.91282e-17
-1.75098e-17
-1.85678e-17
-1.7375e-17
-1.7396e-17
-1.8292e-17
-1.8366e-17
-1.78512e-17
-1.92853e-17
-1.86056e-17
-1.97146e-17
-1.83962e-17
-1.72401e-17
-1.66887e-17
-1.88455e-17
-1.71571e-17
-1.81949e-17
-1.80993e-17
-1.71698e-17
-1.88285e-17
-1.79851e-17
-1.67318e-17
-1.82713e-17
-1.7166e-17
-1.85173e-17
-2.01736e-17
-1.83944e-17
-1.859e-17
-1.81265e-17
-1.68165e-17
-1.82182e-17
-1.96292e-17
-1.84616e-17
-1.81927e-17
-1.50336e-17
-1.91218e-17
-1.82928e-17
-2.07534e-17
-1.83133e-17
-1.81706e-17
-1.96127e-17
-1.82919e-17
-1.71264e-17
-1.83338e-17
-1.91874e-17
-1.94833e-17
-1.79045e-17
-1.63577e-17
-1.7805e-17
-1.89723e-17
-1.76862e-17
-1.69799e-17
-3.40069e-17
-3.0033e-17
-3.2613e-17
-3.45066e-17
-3.39212e-17
-3.1558e-17
-3.43458e-17
-3.24548e-17
-3.48688e-17
-3.42028e-17
-3.38862e-17
-3.38788e-17
-3.17385e-17
-3.37631e-17
-3.48455e-17
-3.35837e-17
-3.38136e-17
-3.51534e-17
-3.0563e-17
-3.48579e-17
-3.45547e-17
-3.21116e-17
-3.32897e-17
-3.40637e-17
-3.53385e-17
-3.46377e-17
-3.42838e-17
-3.40533e-17
-3.42303e-17
-3.36987e-17
-3.64246e-17
-3.52045e-17
-3.45253e-17
-3.23306e-17
-3.38574e-17
-3.26579e-17
-3.53176e-17
-3.27502e-17
-3.42961e-17
-3.16723e-17
-3.39684e-17
-3.46344e-17
-3.61644e-17
-3.27918e-17
-3.31911e-17
-3.32288e-17
-3.29526e-17
-3.22315e-17
-3.44432e-17
-3.64226e-17
-3.29181e-17
-3.1806e-17
-3.50612e-17
-3.51702e-17
-3.26598e-17
-3.47797e-17
-3.5761e-17
-3.41753e-17
-3.38817e-17
-3.47271e-17
-3.58129e-17
-3.47664e-17
-3.44893e-17
-3.38179e-17
-3.57121e-17
-3.48092e-17
-3.19933e-17
-3.52516e-17
-3.19093e-17
-3.1444e-17
-3.21078e-17
-3.25376e-17
-3.5621e-17
-3.58993e-17
-3.28579e-17
-3.6219e-17
-3.27826e-17
-3.31828e-17
-3.52708e-17
-3.48521e-17
-3.28e-17
-3.10774e-17
-3.5783e-17
-3.61782e-17
-3.65977e-17
-3.54308e-17
-3.18786e-17
-3.07674e-17
-3.5116e-17
-3.37519e-17
-3.22015e-17
-3.29049e-17
-3.89868e-17
-3.29563e-17
-3.25374e-17
-3.34708e-17
-3.36863e-17
-3.61666e-17
-3.21478e-17
-3.32392e-17
-3.52068e-17
-3.17598e-17
-3.46324e-17
-3.42096e-17
-3.2678e-17
-3.2111e-17
-3.41606e-17
-3.69495e-17
-3.78131e-17
-2.89637e-17
-3.34979e-17
-3.29257e-17
-3.28603e-17
-3.38182e-17
-3.53742e-17
-3.52597e-17
-3.42076e-17
-3.28121e-17
-3.30906e-17
-3.30493e-17
-3.74228e-17
-3.23924e-17
-3.4353e-17
-3.4089e-17
-3.35356e-17
-3.06053e-17
-3.20838e-17
-3.52497e-17
-3.5544e-17
-3.24892e-17
-3.24651e-17
-3.2287e-17
-3.00559e-17
-3.42244e-17
-3.35905e-17
-3.1024e-17
-3.312e-17
-3.64844e-17
-3.26464e-17
-3.39402e-17
-3.47885e-17
-2.89212e-17
-3.55062e-17
-3.63093e-17
-3.38624e-17
-3.23454e-17
-3.32222e-17
-3.51869e-17
-3.17547e-17
-3.31814e-17
-3.61463e-17
-3.26815e-17
-3.70698e-17
-3.16356e-17
-3.57237e-17
-3.62464e-17
-3.67569e-17
-3.44858e-17
-3.38277e-17
-3.23989e-17
-3.11606e-17
-3.50486e-17
-3.38661e-17
-3.32751e-17
-3.41767e-17
-3.20154e-17
-3.56043e-17
-3.38857e-17
-3.38443e-17
-3.41701e-17
-3.6632e-17
-2.8985e-17
-3.40283e-17
-3.37848e-17
-3.53565e-17
-3.56732e-17
-3.254e-17
-3.16807e-17
-3.06385e-17
-3.47676e-17
-3.62823e-17
-3.22576e-17
-3.04494e-17
-3.11768e-17
-3.7398e-17
-3.21383e-17
-3.23365e-17
-3.25244e-17
-3.48755e-17
-3.54476e-17
-3.45612e-17
-3.7108e-17
-3.38499e-17
-3.04495e-17
-3.28669e-17
-3.3135e-17
-3.48496e-17
-3.0775e-17
-3.27098e-17
-3.3215e-17
-3.35607e-17
-3.52738e-17
-3.31472e-17
-3.80124e-17
-3.48326e-17
-3.1154e-17
-3.51439e-17
-3.40722e-17
-3.39758e-17
-3.29611e-17
-3.32999e-17
-3.35936e-17
-3.40305e-17
-3.44946e-17
-3.70351e-17
-3.30591e-17
-3.70144e-17
-3.29225e-17
-3.64638e-17
-3.38417e-17
-3.33967e-17
-3.4608e-17
-3.49018e-17
-3.59484e-17
-3.53991e-17
-3.18501e-17
-3.37405e-17
-3.35052e-17
-3.2575e-17
-3.31602e-17
-3.54593e-17
-3.47745e-17
-3.63759e-17
-3.28413e-17
-3.41854e-17
-3.35918e-17
-3.39065e-17
-3.33751e-17
-3.43409e-17
-3.48432e-17
-3.38953e-17
-3.58644e-17
-3.42427e-17
-3.29138e-17
-3.17056e-17
-3.66389e-17
-3.4355e-17
-3.11763e-17
-3.27911e-17
-3.21793e-17
-3.50676e-17
-3.61828e-17
-3.69158e-17
-3.31239e-17
-3.7527e-17
-3.75857e-17
-7.08337e-17
-5.88565e-17
-6.58969e-17
-5.93277e-17
-6.60027e-17
-6.68409e-17
-6.32143e-17
-5.86616e-17
-5.85854e-17
-6.33458e-17
-6.2328e-17
-6.6447e-17
-6.77367e-17
-6.66813e-17
-6.09798e-17
-6.31166e-17
-6.25945e-17
-6.06777e-17
-5.68907e-17
-6.23615e-17
-6.08002e-17
-6.74507e-17
-5.92325e-17
-6.46886e-17
-6.31129e-17
-6.99432e-17
-6.82141e-17
-6.60789e-17
-5.81374e-17
-5.80015e-17
-6.24083e-17
-6.36571e-17
-6.30978e-17
-5.64942e-17
-6.64613e-17
-6.76983e-17
-6.64772e-17
-6.79264e-17
-6.18862e-17
-6.05197e-17
-6.14198e-17
-6.33898e-17
-6.60236e-17
-6.04822e-17
-6.48207e-17
-6.75239e-17
-5.9654e-17
-6.00246e-17
-6.3574e-17
-6.57021e-17
-6.1988e-17
-6.25534e-17
-6.41993e-17
-5.91257e-17
-6.14801e-17
-6.22222e-17
-6.68408e-17
-6.49573e-17
-5.84472e-17
-6.42108e-17
-6.43274e-17
-6.54596e-17
-6.03744e-17
-6.72907e-17
-6.90645e-17
-6.63357e-17
-6.38123e-17
-6.06856e-17
-6.08962e-17
-6.89599e-17
-6.1298e-17
-6.35448e-17
-6.49952e-17
-5.68595e-17
-6.13709e-17
-6.43621e-17
-6.57103e-17
-5.85354e-17
-6.47498e-17
-5.89146e-17
-6.02833e-17
-5.61325e-17
-6.20358e-17
-7.34969e-17
-6.19134e-17
-6.15594e-17
-6.61815e-17
-6.69258e-17
-5.93943e-17
-6.23128e-17
-6.71737e-17
-5.85078e-17
-7.02331e-17
-6.35797e-17
-6.47809e-17
-6.02466e-17
-6.32545e-17
-6.7701e-17
-5.68805e-17
-6.09756e-17
-6.43914e-17
-6.07771e-17
-6.52502e-17
-6.70126e-17
-6.27817e-17
-6.64718e-17
-6.60342e-17
-6.49874e-17
-6.36173e-17
-6.03245e-17
-6.17488e-17
-6.42133e-17
-6.07655e-17
-5.81691e-17
-6.12524e-17
-6.80906e-17
-6.36983e-17
-6.88496e-17
-6.84834e-17
-5.81886e-17
-6.39444e-17
-6.57125e-17
-6.10254e-17
-6.03555e-17
-6.70442e-17
-6.64236e-17
-6.21522e-17
-7.03164e-17
-6.76493e-17
-6.1663e-17
-5.96613e-17
-6.60137e-17
-6.57444e-17
-6.47674e-17
-6.29185e-17
-5.70119e-17
-6.36546e-17
-6.27189e-17
-6.26263e-17
-6.53222e-17
-6.37078e-17
-5.9861e-17
-7.37373e-17
-5.97176e-17
-7.06038e-17
-6.42484e-17
-6.29727e-17
-6.00208e-17
-5.7808e-17
-7.04397e-17
-6.19837e-17
-6.25626e-17
-6.94483e-17
-5.95004e-17
-5.51131e-17
-6.37933e-17
-6.54173e-17
-5.96735e-17
-6.05287e-17
-6.14647e-17
-6.98628e-17
-6.59361e-17
-6.17111e-17
-6.19141e-17
-6.70347e-17
-6.00588e-17
-6.74503e-17
-6.22917e-17
-6.80077e-17
-5.87035e-17
-6.57982e-17
-6.67441e-17
-6.48797e-17
-6.66774e-17
-6.38689e-17
-5.69253e-17
-6.44475e-17
-7.11422e-17
-6.38842e-17
-6.04438e-17
-6.22728e-17
-6.42334e-17
-6.09169e-17
-6.02805e-17
-6.04297e-17
-6.33998e-17
-6.27611e-17
-6.37916e-17
-6.72424e-17
-6.47164e-17
-6.66835e-17
-5.98749e-17
-5.96256e-17
-6.72257e-17
-6.7161e-17
-6.4195e-17
-6.81629e-17
-6.08919e-17
-6.50352e-17
-5.97724e-17
-6.13483e-17
-6.0371e-17
-6.11419e-17
-6.9551e-17
-6.10904e-17
-6.08439e-17
-6.40303e-17
-6.56913e-17
-5.90731e-17
-6.24312e-17
-5.80933e-17
-6.46075e-17
-6.31508e-17
-5.93223e-17
-6.32172e-17
-6.09603e-17
-6.53196e-17
-6.34373e-17
-6.40203e-17
-6.17667e-17
-6.18802e-17
-5.76652e-17
-6.27763e-17
-6.33323e-17
-6.35144e-17
-5.88575e-17
-6.72895e-17
-6.55824e-17
-6.28407e-17
-5.59379e-17
-6.07958e-17
-6.24685e-17
-6.57049e-17
-6.23959e-17
-6.55816e-17
-5.93443e-17
-6.56839e-17
-6.46779e-17
-6.30434e-17
-6.30165e-17
-5.99385e-17
-6.18817e-17
-6.88802e-17
-6.01632e-17
-6.23396e-17
-6.51111e-17
-5.96437e-17
-6.0175e-17
-5.923e-17
-5.43948e-17
-6.61291e-17
-6.7091e-17
-5.49726e-17
-5.86138e-17
-6.51236e-17
-6.33416e-17
-1.16942e-16
-1.15794e-16
-1.16475e-16
-1.17074e-16
-1.30688e-16
-1.18776e-16
-1.22341e-16
-1.09978e-16
-1.06926e-16
-1.2472e-16
-1.20323e-16
-1.15828e-16
-1.22329e-16
-1.18808e-16
-1.19022e-16
-1.14307e-16
-1.23381e-16
-1.22624e-16
-1.15784e-16
-1.21947e-16
-1.13287e-16
-1.24561e-16
-1.19505e-16
-1.19404e-16
-1.16597e-16
-1.22763e-16
-1.21098e-16
-1.23802e-16
-1.09992e-16
-1.20018e-16
-1.20627e-16
-1.20057e-16
-1.19704e-16
-1.14098e-16
-1.08396e-16
-1.17183e-16
-1.16624e-16
-1.2345e-16
-1.15776e-16
-1.20223e-16
-1.08083e-16
-1.19829e-16
-1.25687e-16
-1.28895e-16
-1.35507e-16
-1.29421e-16
-1.17064e-16
-1.0638e-16
-1.14275e-16
-1.24665e-16
-1.21299e-16
-1.22851e-16
-1.17464e-16
-1.11229e-16
-1.11738e-16
-1.2211e-16
-1.13748e-16
-1.21063e-16
-1.10922e-16
-1.17721e-16
-1.22457e-16
-1.10952e-16
-1.14249e-16
-1.19812e-16
-1.10458e-16
-1.08912e-16
-1.19459e-16
-1.10457e-16
-1.12334e-16
-1.16147e-16
-1.18791e-16
-1.23176e-16
-1.21027e-16
-1.11732e-16
-1.16289e-16
-1.18554e-16
-1.2106e-16
-1.21992e-16
-1.20377e-16
-1.13508e-16
-1.1981e-16
-1.24975e-16
-1.13591e-16
-1.16694e-16
-1.21665e-16
-1.13696e-16
-1.30229e-16
-1.1045e-16
-1.01283e-16
-1.15548e-16
-1.19982e-16
-1.13879e-16
-1.20788e-16
-1.07636e-16
-1.28676e-16
-1.16362e-16
-1.10404e-16
-1.23165e-16
-1.14543e-16
-1.1564e-16
-1.23301e-16
-1.05979e-16
-1.1313e-16
-1.17068e-16
-1.17563e-16
-1.36373e-16
-1.16336e-16
-1.10995e-16
-1.16174e-16
-1.22311e-16
-1.18201e-16
-1.13684e-16
-1.12867e-16
-1.22113e-16
-1.12229e-16
-1.12166e-16
-1.10143e-16
-1.253e-16
-1.20974e-16
-1.19333e-16
-1.28437e-16
-1.26683e-16
-1.12938e-16
-1.17408e-16
-1.2407e-16
-1.24274e-16
-1.19049e-16
-1.19441e-16
-1.25865e-16
-1.15843e-16
-1.07681e-16
-1.15066e-16
-1.15482e-16
-1.2309e-16
-1.24281e-16
-1.20366e-16
-1.19953e-16
-1.12153e-16
-1.30692e-16
-1.07989e-16
-1.29423e-16
-1.2031e-16
-1.29718e-16
-1.14218e-16
-1.2191e-16
-1.31605e-16
-1.08707e-16
-1.18152e-16
-1.26678e-16
-1.22391e-16
-1.20655e-16
-1.09191e-16
-1.12747e-16
-1.15528e-16
-1.11379e-16
-1.22411e-16
-1.22279e-16
-1.13497e-16
-1.32582e-16
-1.22506e-16
-1.12167e-16
-1.12793e-16
-1.17154e-16
-1.1959e-16
-1.1666e-16
-1.07422e-16
-1.27381e-16
-1.19349e-16
-1.04208e-16
-1.21658e-16
-1.14744e-16
-1.21174e-16
-1.14569e-16
-1.09835e-16
-1.23178e-16
-1.27937e-16
-1.06385e-16
-1.13592e-16
-1.23336e-16
-1.13522e-16
-1.25275e-16
-1.24801e-16
-1.2517e-16
-1.19195e-16
-1.24119e-16
-1.19464e-16
-1.09539e-16
-1.06628e-16
-1.19952e-16
-1.29853e-16
-1.30944e-16
-1.08259e-16
-1.18116e-16
-1.17431e-16
-1.23334e-16
-1.15075e-16
-1.12181e-16
-1.16807e-16
-1.18341e-16
-1.08198e-16
-1.16362e-16
-1.11559e-16
-1.2084e-16
-1.25704e-16
-1.1003e-16
-1.18573e-16
-1.07287e-16
-1.09468e-16
-1.17145e-16
-1.19991e-16
-1.17563e-16
-1.21508e-16
-1.22527e-16
-1.19533e-16
-1.22521e-16
-1.09797e-16
-1.16226e-16
-1.23861e-16
-1.17373e-16
-1.23598e-16
-1.17016e-16
-1.17463e-16
-1.14351e-16
-1.11244e-16
-1.23657e-16
-1.27737e-16
-1.07397e-16
-1.26708e-16
-1.19455e-16
-1.15926e-16
-1.24068e-16
-1.25606e-16
-1.2322e-16
-1.17441e-16
-1.11911e-16
-1.1868e-16
-1.29313e-16
-1.2151e-16
-1.14082e-16
-1.15352e-16
-1.22423e-16
-1.19172e-16
-1.19738e-16
-1.24729e-16
-1.10779e-16
-1.08503e-16
-1.11392e-16
-1.14185e-16
-1.12113e-16
-1.21584e-16
-1.23751e-16
-1.1919e-16
-1.26229e-16
-1.13703e-16
-1.18962e-16
-1.22408e-16
-2.38858e-16
-2.07783e-16
-2.19343e-16
-2.16609e-16
-2.13223e-16
-2.27248e-16
-2.22464e-16
-2.31604e-16
-2.15003e-16
-2.15107e-16
-2.46079e-16
-2.25527e-16
-2.11673e-16
-2.22923e-16
-2.25616e-16
-2.34784e-16
-2.42109e-16
-2.18099e-16
-2.10706e-16
-2.15569e-16
-2.24362e-16
-2.31256e-16
-1.87094e-16
-2.26369e-16
-2.04596e-16
-2.05255e-16
-2.20931e-16
-2.23853e-16
-2.08207e-16
-2.19355e-16
-2.07846e-16
-2.46764e-16
-2.33602e-16
-2.24129e-16
-2.05399e-16
-2.25606e-16
-2.19427e-16
-2.2804e-16
-2.1366e-16
-2.21537e-16
-2.28412e-16
-2.31163e-16
-2.21857e-16
-2.20808e-16
-2.01994e-16
-2.14556e-16
-2.25957e-16
-2.321e-16
-2.19387e-16
-2.20978e-16
-2.03425e-16
-2.35099e-16
-2.11036e-16
-2.31179e-16
-2.27589e-16
-2.32619e-16
-2.25421e-16
-2.41093e-16
-2.20437e-16
-2.10525e-16
-2.20964e-16
-2.13356e-16
-2.03767e-16
-2.25583e-16
-2.14297e-16
-2.11174e-16
-2.19396e-16
-2.28242e-16
-2.14493e-16
-2.26679e-16
-2.34996e-16
-2.37531e-16
-2.14634e-16
-2.18002e-16
-2.20672e-16
-2.26682e-16
-2.29316e-16
-2.35222e-16
-2.13539e-16
-2.20598e-16
-2.2465e-16
-2.30334e-16
-2.14833e-16
-2.2588e-16
-2.14322e-16
-2.05616e-16
-2.45509e-16
-2.27594e-16
-2.22818e-16
-2.31358e-16
-2.15534e-16
-2.21756e-16
-2.28102e-16
-2.15218e-16
-2.23243e-16
-2.33216e-16
-2.33102e-16
-2.47307e-16
-2.50119e-16
-2.02291e-16
-2.11088e-16
-2.08365e-16
-2.16701e-16
-2.10347e-16
-2.08792e-16
-2.25026e-16
-2.23139e-16
-2.09529e-16
-2.30627e-16
-2.25586e-16
-2.07822e-16
-2.09132e-16
-2.17103e-16
-2.22271e-16
-2.1453e-16
-2.30527e-16
-2.10649e-16
-2.04704e-16
-2.26969e-16
-2.25921e-16
-2.20402e-16
-1.90758e-16
-2.08554e-16
-2.1477e-16
-2.25127e-16
-2.10142e-16
-2.3467e-16
-2.31278e-16
-2.12954e-16
-2.21523e-16
-2.24905e-16
-2.17517e-16
-2.3699e-16
-2.31086e-16
-2.28173e-16
-2.22529e-16
-2.17115e-16
-2.24471e-16
-2.34669e-16
-2.17743e-16
-2.28044e-16
-2.03345e-16
-2.19046e-16
-2.06176e-16
-2.12475e-16
-2.12006e-16
-2.16385e-16
-2.16268e-16
-2.50355e-16
-2.22271e-16
-1.91197e-16
-2.03275e-16
-2.2589e-16
-2.29634e-16
-2.33958e-16
-2.33594e-16
-2.121e-16
-2.00975e-16
-2.19344e-16
-2.12297e-16
-2.1293e-16
-2.26631e-16
-2.41597e-16
-2.2285e-16
-2.25082e-16
-2.23293e-16
-2.2352e-16
-2.1965e-16
-2.36369e-16
-2.22758e-16
-2.16493e-16
-2.31385e-16
-2.03569e-16
-2.13369e-16
-2.31949e-16
-2.34846e-16
-2.22462e-16
-2.2226e-16
-2.2036e-16
-2.17285e-16
-2.36809e-16
-2.46212e-16
-1.90087e-16
-2.13273e-16
-2.41757e-16
-2.10122e-16
-2.2268e-16
-1.96931e-16
-2.27866e-16
-2.29128e-16
-2.13013e-16
-2.42693e-16
-2.32542e-16
-1.92225e-16
-2.04362e-16
-2.05864e-16
-2.14508e-16
-2.1833e-16
-2.24786e-16
-2.10723e-16
-2.16529e-16
-2.38609e-16
-2.00209e-16
-2.22922e-16
-2.29028e-16
-2.22293e-16
-2.28661e-16
-2.30926e-16
-2.15267e-16
-2.39481e-16
-2.01684e-16
-2.19198e-16
-2.26251e-16
-2.31144e-16
-2.19432e-16
-2.18911e-16
-2.37688e-16
-2.40523e-16
-2.18272e-16
-2.24881e-16
-2.27891e-16
-2.2597e-16
-2.19364e-16
-2.28104e-16
-2.23148e-16
-2.18934e-16
-2.05899e-16
-2.19441e-16
-2.14562e-16
-2.24244e-16
-2.09928e-16
-2.39549e-16
-2.35743e-16
-2.19971e-16
-2.29924e-16
-2.20215e-16
-1.9438e-16
-2.09435e-16
-2.16545e-16
-2.33165e-16
-2.3269e-16
-2.31247e-16
-2.0457e-16
-2.02966e-16
-2.15682e-16
-2.29025e-16
-2.29041e-16
-2.24767e-16
-2.24611e-16
-2.2672e-16
-2.15502e-16
-2.23691e-16
-2.23104e-16
-2.33207e-16
-2.31031e-16
-2.15487e-16
-4.24235e-16
-4.04858e-16
-4.22661e-16
-4.24508e-16
-4.11646e-16
-4.33874e-16
-3.80789e-16