# vtk DataFile Version 1.0
Ion Density - Current Sheet
ASCII
DATASET STRUCTURED_POINTS
DIMENSIONS 256 128 1
ORIGIN 0 0 0
SPACING 0.15625 0.15625 1
POINT_DATA 32768
SCALARS rhoi float
LOOKUP_TABLE default
1.94788e-18
1.91674e-18
1.91703e-18
1.89704e-18
2.09185e-18
1.99951e-18
1.88832e-18
1.85028e-18
1.87391e-18
1.8475e-18
2.0066e-18
1.98433e-18
1.87581e-18
1.90086e-18
1.91322e-18
2.05826e-18
1.91482e-18
1.95792e-18
1.96581e-18
1.95137e-18
2.02552e-18
1.98783e-18
1.9901e-18
1.96726e-18
2.028e-18
1.86555e-18
1.92343e-18
1.9341e-18
1.96334e-18
1.97353e-18
1.92647e-18
2.04314e-18
1.91743e-18
2.02998e-18
1.92146e-18
1.83856e-18
1.9915e-18
1.94551e-18
1.9782e-18
1.92985e-18
1.90098e-18
1.89519e-18
1.98639e-18
1.84707e-18
1.88753e-18
1.88146e-18
1.93414e-18
1.89871e-18
1.92974e-18
1.97854e-18
1.92204e-18
1.99519e-18
1.82451e-18
1.86576e-18
1.92981e-18
1.97037e-18
2.02437e-18
1.95756e-18
1.88744e-18
1.92213e-18
1.94603e-18
2.03681e-18
2.01889e-18
1.97857e-18
1.85915e-18
1.88457e-18
1.89847e-18
1.8502e-18
1.86525e-18
1.87345e-18
1.9632e-18
1.9718e-18
1.90662e-18
1.90859e-18
1.93059e-18
1.85614e-18
1.91082e-18
2.01603e-18
1.855e-18
1.96014e-18
1.80144e-18
1.92312e-18
1.85721e-18
1.8693e-18
1.97292e-18
1.94069e-18
1.82705e-18
2.00358e-18
1.94567e-18
1.9888e-18
1.81641e-18
1.8362e-18
1.86593e-18
2.03175e-18
2.04379e-18
2.10226e-18
1.9677e-18
1.90657e-18
1.85296e-18
1.97209e-18
1.78106e-18
1.91782e-18
1.80855e-18
1.89878e-18
1.94673e-18
1.86149e-18
1.84988e-18
1.85752e-18
1.93066e-18
1.79459e-18
1.88023e-18
1.90055e-18
2.03194e-18
1.88536e-18
1.99301e-18
1.9433e-18
1.85115e-18
1.84682e-18
1.83771e-18
1.91193e-18
1.91723e-18
1.98736e-18
1.82855e-18
1.86469e-18
2.03137e-18
1.8544e-18
1.99084e-18
1.91e-18
1.92723e-18
1.85205e-18
1.8999e-18
1.78883e-18
2.13959e-18
1.87452e-18
1.82839e-18
1.9948e-18
1.92194e-18
1.88247e-18
2.00276e-18
2.06984e-18
1.96585e-18
1.84748e-18
1.88897e-18
1.8447e-18
2.04129e-18
1.84071e-18
1.8928e-18
1.97779e-18
1.87832e-18
1.97952e-18
1.94944e-18
1.86661e-18
1.87261e-18
1.80014e-18
1.97576e-18
2.00718e-18
2.01629e-18
1.89383e-18
1.87545e-18
2.04347e-18
1.93428e-18
1.92423e-18
1.87261e-18
1.80088e-18
1.9836e-18
2.01846e-18
1.84969e-18
1.97208e-18
1.99425e-18
1.93789e-18
1.86977e-18
1.92903e-18
1.9634e-18
1.96414e-18
1.95051e-18
1.91978e-18
1.87583e-18
1.82321e-18
1.90146e-18
1.96211e-18
1.89244e-18
1.94025e-18
2.07486e-18
1.90311e-18
1.83815e-18
1.84306e-18
1.98278e-18
1.93573e-18
2.05336e-18
1.8247e-18
1.98976e-18
1.94915e-18
1.79157e-18
2.03288e-18
1.92759e-18
1.92635e-18
1.83448e-18
1.84738e-18
1.99375e-18
2.01048e-18
1.88348e-18
2.0029e-18
1.87499e-18
1.99434e-18
1.84303e-18
2.00164e-18
1.89937e-18
1.78979e-18
1.91157e-18
1.89391e-18
1.93881e-18
1.96294e-18
1.9602e-18
1.83641e-18
1.89389e-18
1.8776e-18
1.92707e-18
2.1681e-18
1.92106e-18
1.94996e-18
1.95959e-18
1.90388e-18
1.82235e-18
1.8451e-18
1.86546e-18
1.96079e-18
1.92686e-18
1.88704e-18
1.7989e-18
1.96667e-18
1.88673e-18
1.88369e-18
1.95445e-18
2.01888e-18
1.81632e-18
1.99523e-18
1.8885e-18
1.94006e-18
1.8863e-18
1.92821e-18
1.85617e-18
1.9252e-18
1.88176e-18
2.02348e-18
2.01671e-18
2.00253e-18
1.95618e-18
1.95969e-18
2.15361e-18
1.81164e-18
1.99844e-18
1.86402e-18
1.92662e-18
1.93604e-18
1.87985e-18
1.8893e-18
2.61757e-18
2.81609e-18
2.71694e-18
2.63845e-18
2.63541e-18
2.8774e-18
2.83772e-18
2.78608e-18
2.9474e-18
2.84767e-18
2.91559e-18
2.86082e-18
2.88204e-18
2.68413e-18
2.65996e-18
2.73392e-18
2.79029e-18
2.87619e-18
2.85617e-18
2.75464e-18
2.76461e-18
2.78362e-18
2.53193e-18
2.88417e-18
2.6662e-18
2.93356e-18
2.77606e-18
2.7789e-18
2.76106e-18
2.83278e-18
2.85681e-18
2.63606e-18
2.82395e-18
2.74203e-18
2.90049e-18
2.67282e-18
2.75012e-18
2.79684e-18
2.91186e-18
2.74092e-18
2.79388e-18
2.89327e-18
2.8306e-18
2.97344e-18
2.80035e-18
2.75199e-18
2.83597e-18
2.841e-18
2.68057e-18
2.73242e-18
2.75915e-18
2.87213e-18
2.68977e-18
2.82246e-18
2.65163e-18
2.80431e-18
2.69697e-18
2.8373e-18
2.84041e-18
2.74768e-18
2.71978e-18
2.81537e-18
2.82414e-18
2.77808e-18
2.83295e-18
2.80508e-18
2.8241e-18
2.68075e-18
2.67525e-18
2.74998e-18
2.87459e-18
2.83447e-18
2.66359e-18
2.80653e-18
2.80273e-18
2.75558e-18
2.75001e-18
2.69501e-18
2.60239e-18
2.81899e-18
3.00549e-18
2.86925e-18
2.8378e-18
2.83805e-18
2.68324e-18
2.89939e-18
2.82422e-18
2.80991e-18
2.69158e-18
2.65144e-18
2.78741e-18
2.75943e-18
2.66155e-18
2.70499e-18
2.64905e-18
2.73489e-18
2.74266e-18
2.79205e-18
2.75543e-18
2.88711e-18
2.8563e-18
2.8028e-18
2.84135e-18
2.67755e-18
2.84207e-18
2.76459e-18
2.76557e-18
2.83002e-18
2.85938e-18
2.84685e-18
2.8795e-18
2.65449e-18
2.91579e-18
2.72866e-18
2.67789e-18
2.77869e-18
2.7679e-18
2.78169e-18
2.8278e-18
2.88175e-18
2.69779e-18
2.74334e-18
2.88938e-18
2.69817e-18
2.77845e-18
2.94838e-18
2.97277e-18
2.72694e-18
2.69372e-18
2.85032e-18
2.77468e-18
2.73134e-18
2.81544e-18
2.75242e-18
2.67145e-18
2.9189e-18
2.84556e-18
2.78511e-18
2.71649e-18
2.7657e-18
2.66649e-18
2.74767e-18
2.79091e-18
2.81998e-18
2.93014e-18
2.78265e-18
2.55565e-18
2.78045e-18
2.79461e-18
2.70464e-18
2.71622e-18
2.75126e-18
2.94142e-18
2.87072e-18
2.86526e-18
2.8665e-18
2.78236e-18
2.76958e-18
2.7431e-18
2.72694e-18
2.74759e-18
2.84276e-18
2.7824e-18
2.70602e-18
2.88015e-18
2.82303e-18
2.71978e-18
2.84146e-18
2.70134e-18
2.63608e-18
2.8479e-18
2.68569e-18
2.81321e-18
2.7432e-18
2.78119e-18
2.87121e-18
2.77671e-18
2.78595e-18
2.75652e-18
2.80099e-18
2.81335e-18
2.85264e-18
2.71607e-18
2.86357e-18
2.73891e-18
2.727e-18
2.82182e-18
2.67237e-18
2.78911e-18
2.87838e-18
2.92299e-18
2.74625e-18
2.74698e-18
2.8e-18
2.7187e-18
2.95312e-18
2.7657e-18
2.88286e-18
2.77912e-18
2.89956e-18
2.74782e-18
2.91699e-18
2.78304e-18
2.80505e-18
2.70439e-18
2.84822e-18
2.80264e-18
2.81431e-18
2.85388e-18
2.7972e-18
2.70644e-18
2.92507e-18
2.6799e-18
2.71564e-18
2.81271e-18
2.77714e-18
2.8196e-18
2.73753e-18
2.749e-18
2.84131e-18
2.67927e-18
2.69165e-18
2.74583e-18
2.78408e-18
2.63678e-18
2.7211e-18
2.76439e-18
2.78628e-18
2.79716e-18
2.86212e-18
2.60668e-18
2.7451e-18
2.70212e-18
2.86808e-18
2.78185e-18
2.67594e-18
2.68336e-18
2.86934e-18
2.85972e-18
2.85744e-18
2.78208e-18
2.801e-18
2.81734e-18
2.7163e-18
2.5571e-18
2.8271e-18
2.68889e-18
2.66444e-18
2.88649e-18
2.81639e-18
2.8128e-18
2.8432e-18
2.7302e-18
2.79659e-18
2.72298e-18
2.65952e-18
5.36298e-18
4.91495e-18
5.27056e-18
5.15486e-18
5.2567e-18
5.20324e-18
4.9744e-18
5.22564e-18
5.07952e-18
5.00387e-18
4.9301e-18
5.328e-18
5.39447e-18
5.01777e-18
5.04946e-18
5.16813e-18
5.14774e-18
5.00802e-18
5.21187e-18
5.0719e-18
5.08062e-18
5.34067e-18
5.14033e-18
5.28767e-18
5.21419e-18
5.07574e-18
5.19601e-18
5.08471e-18
5.24358e-18
5.05991e-18
5.06752e-18
5.08946e-18
5.19844e-18
5.02013e-18
5.16782e-18
5.26273e-18
5.26206e-18
5.15711e-18
5.24041e-18
5.03661e-18
5.15937e-18
5.16933e-18
5.21994e-18
5.11571e-18
5.01287e-18
5.24002e-18
5.37673e-18
5.21011e-18
5.21911e-18
5.14066e-18
5.00002e-18
5.13577e-18
5.20395e-18
5.13802e-18
5.03341e-18
5.10839e-18
4.96729e-18
5.40584e-18
5.20367e-18
5.09929e-18
5.20953e-18
5.23037e-18
5.25446e-18
5.13517e-18
4.90893e-18
5.41386e-18
5.11072e-18
5.40659e-18
5.38122e-18
5.28685e-18
5.25262e-18
5.29011e-18
5.20659e-18
5.44414e-18
5.32569e-18
5.1903e-18
5.05744e-18
5.22949e-18
5.30459e-18
5.30928e-18
5.12617e-18
5.12669e-18
5.16958e-18
5.31874e-18
5.13033e-18
5.39644e-18
5.31855e-18
5.213e-18
5.12433e-18
5.19894e-18
5.46699e-18
5.36737e-18
5.15292e-18
5.11131e-18
5.28964e-18
5.43474e-18
5.36056e-18
5.04426e-18
5.2738e-18
5.05181e-18
5.01881e-18
5.14104e-18
5.24774e-18
5.37853e-18
5.30608e-18
5.20508e-18
5.31806e-18
5.1199e-18
5.23579e-18
5.29853e-18
5.21643e-18
5.30958e-18
5.10761e-18
5.3012e-18
5.23956e-18
5.23223e-18
5.40731e-18
5.2298e-18
4.97329e-18
5.24508e-18
5.33789e-18
5.13571e-18
5.05939e-18
5.13377e-18
5.02523e-18
5.15662e-18
5.37107e-18
5.0451e-18
5.06567e-18
5.04546e-18
5.09603e-18
5.21569e-18
5.20266e-18
5.2691e-18
5.43205e-18
4.99788e-18
4.92012e-18
5.32742e-18
5.36656e-18
5.19099e-18
5.25362e-18
5.03041e-18
5.34659e-18
4.98166e-18
4.93568e-18
5.10102e-18
5.28087e-18
5.46468e-18
5.0182e-18
5.08537e-18
5.44203e-18
5.21801e-18
4.92149e-18
5.12488e-18
4.93392e-18
5.21784e-18
5.391e-18
5.35961e-18
5.35971e-18
5.54626e-18
5.19034e-18
5.2879e-18
5.15752e-18
5.21879e-18
5.05357e-18
5.12873e-18
5.11739e-18
5.25179e-18
5.17561e-18
5.28274e-18
5.30133e-18
5.36695e-18
5.17206e-18
5.26732e-18
5.07e-18
5.31768e-18
5.27057e-18
5.30612e-18
5.31529e-18
5.04618e-18
4.98564e-18
5.2258e-18
5.17842e-18
5.32859e-18
5.47617e-18
5.35468e-18
5.0707e-18
5.2799e-18
5.13152e-18
5.17569e-18
5.10186e-18
4.93191e-18
5.33225e-18
5.17941e-18
5.2104e-18
5.2048e-18
5.25937e-18
5.12904e-18
4.71009e-18
5.26036e-18
5.11013e-18
5.15444e-18
5.16258e-18
5.47472e-18
5.61161e-18
5.12339e-18
5.3858e-18
5.15221e-18
5.39013e-18
5.02247e-18
5.15035e-18
5.03693e-18
5.17066e-18
5.348e-18
5.27403e-18
5.12963e-18
5.1158e-18
5.21968e-18
5.22595e-18
5.14405e-18
5.07101e-18
5.38471e-18
5.36832e-18
5.25761e-18
5.04065e-18
5.13602e-18
5.2666e-18
5.27461e-18
5.0758e-18
5.32147e-18
5.19751e-18
5.47369e-18
5.16399e-18
5.39412e-18
5.19801e-18
4.99396e-18
5.10173e-18
5.31992e-18
5.26234e-18
5.10397e-18
5.13818e-18
5.15859e-18
4.94207e-18
5.3112e-18
5.3624e-18
5.28721e-18
4.99206e-18
5.24751e-18
5.19958e-18
5.28168e-18
5.42729e-18
5.16649e-18
5.07481e-18
5.48227e-18
5.07768e-18
5.52261e-18
9.68789e-18
9.74996e-18
9.8436e-18
9.60082e-18
9.43944e-18
9.51417e-18
9.55958e-18
9.80956e-18
9.6583e-18
9.71526e-18
9.46323e-18
9.91709e-18
9.94033e-18
9.35892e-18
9.66701e-18
9.79927e-18
9.7752e-18
9.77431e-18
9.67018e-18
9.68327e-18
1.00112e-17
9.44905e-18
9.45121e-18
9.75936e-18
9.49839e-18
9.8772e-18
9.38925e-18
9.8678e-18
9.80773e-18
9.70972e-18
1.02064e-17
9.54947e-18
9.76411e-18
9.81667e-18
9.79878e-18
9.83363e-18
1.02476e-17
9.76735e-18
9.60643e-18
9.81145e-18
9.84535e-18
9.42066e-18
9.43479e-18
9.48451e-18
9.84818e-18
9.87736e-18
9.65098e-18
9.68658e-18
9.64456e-18
9.7102e-18
9.67165e-18
9.61901e-18
9.97066e-18
9.6435e-18
9.72547e-18
9.84423e-18
9.90396e-18
9.79012e-18
9.90441e-18
9.43323e-18
9.72555e-18
9.84569e-18
9.5644e-18
1.00794e-17
9.3761e-18
9.733e-18
9.97228e-18
1.00891e-17
9.2908e-18
9.77921e-18
9.60093e-18
9.96325e-18
9.65641e-18
9.58805e-18
9.2189e-18
9.72385e-18
1.00004e-17
9.5602e-18
1.03963e-17
9.80279e-18
9.23196e-18
9.69328e-18
9.87625e-18
9.47746e-18
9.26044e-18
9.98475e-18
9.7938e-18
9.76418e-18
9.80058e-18
9.56154e-18
9.58151e-18
9.35354e-18
9.86795e-18
9.83601e-18
9.49732e-18
9.24848e-18
9.71572e-18
9.45247e-18
9.90359e-18
9.53948e-18
9.61038e-18
9.4449e-18
9.87487e-18
9.44669e-18
9.66862e-18
9.17917e-18
9.84633e-18
9.56823e-18
9.83629e-18
9.6927e-18
9.68227e-18
9.52192e-18
1.03614e-17
9.44133e-18
9.71727e-18
1.04806e-17
9.74867e-18
9.51029e-18
9.91642e-18
9.77713e-18
9.66146e-18
9.71934e-18
1.01936e-17
9.59953e-18
9.27865e-18
9.31825e-18
9.71883e-18
1.0312e-17
9.50362e-18
9.86936e-18
9.93721e-18
9.47763e-18
9.3033e-18
9.6517e-18
1.00511e-17
9.93385e-18
9.77136e-18
9.24039e-18
9.71825e-18
9.66174e-18
9.38168e-18
9.38395e-18
9.56381e-18
9.82954e-18
9.71737e-18
9.92103e-18
9.62945e-18
9.38807e-18
9.71559e-18
9.51313e-18
9.68555e-18
9.38594e-18
9.8384e-18
9.59986e-18
9.63547e-18
9.83241e-18
9.20167e-18
9.3108e-18
9.4908e-18
1.0113e-17
9.22284e-18
9.78946e-18
9.20085e-18
9.28138e-18
9.97066e-18
1.01601e-17
9.7548e-18
9.52e-18
9.67457e-18
9.5461e-18
9.69709e-18
9.91239e-18
9.66744e-18
9.4e-18
9.63921e-18
9.87703e-18
9.83063e-18
9.84407e-18
9.36426e-18
1.0692e-17
9.73597e-18
9.44863e-18
9.07499e-18
9.86611e-18
9.46832e-18
9.77738e-18
9.79744e-18
9.69084e-18
9.97502e-18
9.11297e-18
9.67779e-18
9.75187e-18
9.73216e-18
9.39587e-18
1.01392e-17
9.5239e-18
9.68926e-18
9.64329e-18
9.81767e-18
9.2737e-18
1.0286e-17
9.77596e-18
9.60719e-18
9.4933e-18
9.82294e-18
9.21368e-18
9.82554e-18
1.00792e-17
9.28697e-18
9.85682e-18
9.72661e-18
9.60483e-18
9.76263e-18
9.77163e-18
9.8117e-18
9.63198e-18
9.5445e-18
9.44622e-18
9.13858e-18
9.88233e-18
9.54112e-18
9.87869e-18
9.76031e-18
9.39387e-18
9.71679e-18
9.81838e-18
9.41e-18
9.50357e-18
1.00434e-17
9.82043e-18
9.14506e-18
9.55448e-18
9.54709e-18
9.71316e-18
9.63843e-18
9.06642e-18
9.78772e-18
9.6375e-18
9.73125e-18
9.92305e-18
1.00762e-17
9.39755e-18
9.52506e-18
1.00831e-17
9.59046e-18
9.81201e-18
9.84994e-18
1.01742e-17
9.37309e-18
9.3022e-18
9.67585e-18
9.81254e-18
9.85137e-18
9.47309e-18
9.95728e-18
9.5231e-18
1.84264e-17
1.87852e-17
1.72738e-17
1.80006e-17
1.82812e-17
1.82766e-17
1.8531e-17
1.91043e-17
1.78796e-17
1.81199e-17
1.73963e-17
1.87045e-17
1.88009e-17
1.77356e-17
1.80395e-17
1.85993e-17
1.78162e-17
1.88999e-17
1.84808e-17
1.81433e-17
1.82462e-17
1.81709e-17
1.81492e-17
1.82024e-17
1.80341e-17
1.8802e-17
1.87019e-17
1.772e-17
1.86344e-17
1.89167e-17
1.72822e-17
1.78243e-17
1.84236e-17
1.76936e-17
1.77926e-17
1.81747e-17
1.79176e-17
1.8544e-17
1.81217e-17
1.7299e-17
1.82025e-17
1.83834e-17
1.80916e-17
1.86669e-17
1.69652e-17
1.87983e-17
1.87555e-17
1.82376e-17
1.78568e-17
1.90768e-17
1.79953e-17
1.85733e-17
1.76967e-17
1.73971e-17
1.88689e-17
1.78597e-17
1.78588e-17
1.88361e-17
1.8556e-17
1.78923e-17
1.85804e-17
1.79115e-17
1.85389e-17
1.83832e-17
1.81117e-17
1.87752e-17
1.71044e-17
1.75276e-17
1.79138e-17
1.84442e-17
1.80843e-17
1.75995e-17
1.82136e-17
1.81444e-17
1.77787e-17
1.80114e-17
1.79555e-17
1.80529e-17
1.82907e-17
1.77638e-17
1.78047e-17
1.76448e-17
1.82128e-17
1.86922e-17
1.82229e-17
1.75863e-17
1.79256e-17
1.84471e-17
1.84983e-17
1.8592e-17
1.82794e-17
1.77614e-17
1.77866e-17
1.83834e-17
1.82251e-17
1.89321e-17
1.86551e-17
1.86005e-17
1.82249e-17
1.83255e-17
1.78423e-17
1.78934e-17
1.88041e-17
1.8005e-17
1.82472e-17
1.81192e-17
1.78948e-17
1.78176e-17
1.80067e-17
1.78483e-17
1.77521e-17
1.87726e-17
1.80888e-17
1.77935e-17
1.77405e-17
1.83664e-17
1.84398e-17
1.86125e-17
1.83357e-17
1.82442e-17
1.9078e-17
1.90303e-17
1.78678e-17
1.84801e-17
1.82844e-17
1.79839e-17
1.78264e-17
1.75024e-17
1.76378e-17
1.80604e-17
1.79772e-17
1.90622e-17
1.70936e-17
1.82977e-17
1.74737e-17
1.82812e-17
1.82856e-17
1.80601e-17
1.7489e-17
1.84265e-17
1.85012e-17
1.8771e-17
1.82756e-17
1.87148e-17
1.86259e-17
1.91587e-17
1.77615e-17
1.80181e-17
1.88491e-17
1.82443e-17
1.80323e-17
1.78286e-17
1.81125e-17
1.83078e-17
1.69371e-17
1.77942e-17
1.86055e-17
1.87632e-17
1.87146e-17
1.80989e-17
1.68673e-17
1.88308e-17
1.93318e-17
1.81502e-17
1.87505e-17
1.79191e-17
1.84671e-17
1.76814e-17
1.84788e-17
1.85599e-17
1.88147e-17
1.82493e-17
1.84645e-17
1.85895e-17
1.83264e-17
1.77079e-17
1.79461e-17
1.7342e-17
1.75303e-17
1.77179e-17
1.92074e-17
1.88806e-17
1.89444e-17
1.77987e-17
1.81438e-17
1.75984e-17
1.78987e-17
1.83554e-17
1.7925e-17
1.82779e-17
1.87913e-17
1.78769e-17
1.77874e-17
1.88882e-17
1.82329e-17
1.78227e-17
1.82957e-17
1.76066e-17
1.76246e-17
1.83883e-17
1.81319e-17
1.80477e-17
1.98419e-17
1.78806e-17
1.78944e-17
1.70722e-17
1.83495e-17
1.78902e-17
1.76446e-17
1.80688e-17
1.88744e-17
1.84166e-17
1.7574e-17
1.8648e-17
1.81584e-17
1.78073e-17
1.73611e-17
1.84013e-17
1.84151e-17
1.80558e-17
1.72477e-17
1.82756e-17
1.82512e-17
1.81128e-17
1.82245e-17
1.78089e-17
1.79756e-17
1.86969e-17
1.75817e-17
1.79539e-17
1.78314e-17
1.76144e-17
1.7598e-17
1.77916e-17
1.73261e-17
1.81438e-17
1.86678e-17
1.87285e-17
1.74932e-17
1.90393e-17
1.83369e-17
1.8852e-17
1.82072e-17
1.74801e-17
1.80257e-17
1.81391e-17
1.77544e-17
1.84376e-17
1.80974e-17
1.84413e-17
1.87756e-17
1.75322e-17
1.7833e-17
1.85125e-17
1.95403e-17
1.74503e-17
3.2494e-17
3.49369e-17
3.34646e-17
3.39864e-17
3.38113e-17
3.56918e-17
3.2973e-17
3.31396e-17
3.35885e-17
3.41746e-17
3.3511e-17
3.20671e-17
3.2969e-17
3.33571e-17
3.44179e-17
3.48499e-17
3.3055e-17
3.41394e-17
3.24537e-17
3.40707e-17
3.44674e-17
3.31963e-17
3.31546e-17
3.28156e-17
3.44458e-17
3.41454e-17
3.27018e-17
3.34058e-17
3.27515e-17
3.23535e-17
3.38152e-17
3.6004e-17
3.31434e-17
3.38185e-17
3.38059e-17
3.28833e-17
3.51796e-17
3.29268e-17
3.43156e-17
3.33052e-17
3.26907e-17
3.48901e-17
3.41449e-17
3.30872e-17
3.43833e-17
3.28049e-17
3.43479e-17
3.35417e-17
3.37605e-17
3.50705e-17
3.34306e-17
3.31551e-17
3.36698e-17
3.42694e-17
3.31138e-17
3.31544e-17
3.3092e-17
3.29694e-17
3.33396e-17
3.31201e-17
3.36586e-17
3.3858e-17
3.22883e-17
3.26453e-17
3.54607e-17
3.36664e-17
3.27508e-17
3.57614e-17
3.4135e-17
3.20575e-17
3.16151e-17
3.32359e-17
3.54348e-17
3.34338e-17
3.38118e-17
3.331e-17
3.38924e-17
3.37744e-17
3.31876e-17
3.49882e-17
3.26853e-17
3.40885e-17
3.38953e-17
3.48582e-17
3.48701e-17
3.25484e-17
3.52023e-17
3.30366e-17
3.34646e-17
3.33522e-17
3.46174e-17
3.41662e-17
3.44186e-17
3.20089e-17
3.33924e-17
3.18685e-17
3.36983e-17
3.49335e-17
3.30797e-17
3.3811e-17
3.64999e-17
3.27048e-17
3.3919e-17
3.41762e-17
3.28173e-17
3.45142e-17
3.40492e-17
3.32412e-17
3.62083e-17
3.31329e-17
3.39528e-17
3.40761e-17
3.56029e-17
3.31468e-17
3.48655e-17
3.19451e-17
3.20506e-17
3.39296e-17
3.40484e-17
3.3856e-17
3.16918e-17
3.52799e-17
3.36982e-17
3.38557e-17
3.4152e-17
3.4849e-17
3.53329e-17
3.47295e-17
3.5432e-17
3.29345e-17
3.44395e-17
3.48725e-17
3.21296e-17
3.41283e-17
3.61735e-17
3.36358e-17
3.43214e-17
3.52233e-17
3.29629e-17
3.40026e-17
3.26494e-17
3.17112e-17
3.3387e-17
3.50806e-17
3.34006e-17
3.29882e-17
3.34045e-17
3.39663e-17
3.25302e-17
3.35773e-17
3.45556e-17
3.3828e-17
3.44648e-17
3.2368e-17
3.3911e-17
3.28714e-17
3.51167e-17
3.35723e-17
3.32075e-17
3.47516e-17
3.35915e-17
3.51683e-17
3.44127e-17
3.37571e-17
3.29623e-17
3.35861e-17
3.43065e-17
3.3376e-17
3.30667e-17
3.49634e-17
3.4365e-17
3.33081e-17
3.45782e-17
3.30445e-17
3.42786e-17
3.41507e-17
3.40216e-17
3.29352e-17
3.24144e-17
3.38302e-17
3.37237e-17
3.35075e-17
3.36569e-17
3.34467e-17
3.39639e-17
3.41023e-17
3.49925e-17
3.383e-17
3.3073e-17
3.51277e-17
3.36342e-17
3.44369e-17
3.38019e-17
3.27824e-17
3.40859e-17
3.44366e-17
3.54967e-17
3.23088e-17
3.46623e-17
3.37578e-17
3.37945e-17
3.37557e-17
3.23635e-17
3.50522e-17
3.53062e-17
3.23033e-17
3.40359e-17
3.49999e-17
3.42139e-17
3.26439e-17
3.31082e-17
3.41082e-17
3.32231e-17
3.32832e-17
3.29997e-17
3.5566e-17
3.42047e-17
3.40905e-17
3.30521e-17
3.4624e-17
3.42379e-17
3.24194e-17
3.38139e-17
3.54127e-17
3.42939e-17
3.4136e-17
3.45376e-17
3.37626e-17
3.45595e-17
3.49427e-17
3.40631e-17
3.46483e-17
3.47067e-17
3.42609e-17
3.3776e-17
3.5924e-17
3.32309e-17
3.33979e-17
3.28003e-17
3.36421e-17
3.36161e-17
3.30971e-17
3.52756e-17
3.36656e-17
3.26868e-17
3.4721e-17
3.3335e-17
3.29676e-17
3.46212e-17
3.38678e-17
3.29802e-17
3.3301e-17
3.34147e-17
3.21752e-17
3.38988e-17
3.41118e-17
6.4114e-17
6.29851e-17
6.36595e-17
6.15894e-17
6.54866e-17
6.31372e-17
6.12924e-17
6.34005e-17
6.18319e-17
6.35786e-17
6.25844e-17
6.43371e-17
6.30875e-17
5.94477e-17
6.31137e-17
6.19021e-17
6.29418e-17
6.48908e-17
6.06152e-17
6.33656e-17
6.24855e-17
6.33129e-17
6.2817e-17
6.52029e-17
6.3503e-17
6.54878e-17
6.5293e-17
6.37978e-17
6.26213e-17
6.35111e-17
6.58228e-17
6.33756e-17
6.11324e-17
5.90855e-17
6.25205e-17
6.60822e-17
6.55118e-17
6.41812e-17
5.96284e-17
6.49439e-17
6.38984e-17
6.54708e-17
6.75964e-17
6.08503e-17
6.01257e-17
6.65285e-17
6.18323e-17
6.2192e-17
6.47476e-17
6.33444e-17
6.25292e-17
6.34326e-17
6.6134e-17
6.65437e-17
6.38905e-17
6.32691e-17
6.70487e-17
6.45521e-17
6.15444e-17
6.50813e-17
6.16797e-17
6.21816e-17
6.34493e-17
6.562e-17
6.3497e-17
6.20821e-17
6.42504e-17
6.17992e-17
6.39407e-17
6.55656e-17
6.75189e-17
6.50093e-17
6.25879e-17
6.45417e-17
6.20994e-17
6.51894e-17
6.45269e-17
6.29595e-17
6.28044e-17
5.9673e-17
6.367e-17
6.39307e-17
6.02794e-17
6.7698e-17
6.16154e-17
6.30419e-17
6.33851e-17
6.29653e-17
6.29577e-17
6.23386e-17
6.30639e-17
6.11627e-17
6.42286e-17
6.33463e-17
6.39305e-17
6.27161e-17
6.36863e-17
6.30234e-17
6.1193e-17
6.10513e-17
6.41521e-17
6.26176e-17
6.23647e-17
6.65912e-17
6.01327e-17
6.68338e-17
6.18712e-17
6.43275e-17
6.37379e-17
6.29862e-17
6.34682e-17
6.19795e-17
6.28797e-17
6.26937e-17
6.63009e-17
6.55258e-17
6.22309e-17
6.40771e-17
6.70354e-17
6.25464e-17
6.3217e-17
6.22623e-17
5.95248e-17
6.16345e-17
6.36692e-17
6.10297e-17
6.19809e-17
6.305e-17
6.54551e-17
6.5093e-17
6.31964e-17
6.31341e-17
6.33173e-17
6.56364e-17
6.26128e-17
6.1679e-17
6.3023e-17
6.23538e-17
6.32946e-17
6.39464e-17
6.48246e-17
6.34845e-17
6.51822e-17
6.51031e-17
6.21308e-17
6.42178e-17
6.35867e-17
6.16686e-17
6.06479e-17
6.52808e-17
6.29079e-17
6.30319e-17
6.51973e-17
6.31875e-17
6.23329e-17
6.6816e-17
6.12267e-17
6.18732e-17
6.47132e-17
5.96046e-17
6.25876e-17
6.32656e-17
6.22657e-17
6.53765e-17
6.09722e-17
5.99349e-17
6.30467e-17
6.22988e-17
6.33578e-17
6.11323e-17
6.49437e-17
6.45996e-17
6.16139e-17
6.3293e-17
6.67731e-17
6.23984e-17
6.27633e-17
6.75481e-17
6.39393e-17
6.21162e-17
6.1179e-17
6.73289e-17
6.34998e-17
6.46195e-17
6.38885e-17
6.21216e-17
6.33405e-17
6.23476e-17
6.62464e-17
6.15066e-17
6.29424e-17
6.50062e-17
6.18929e-17
6.38785e-17
6.29779e-17
6.07613e-17
6.45005e-17
6.31438e-17
6.42007e-17
6.33671e-17
6.13751e-17
6.46188e-17
6.26742e-17
6.49802e-17
6.60801e-17
6.38131e-17
6.56505e-17
6.41602e-17
6.4153e-17
6.25854e-17
6.13672e-17
6.40144e-17
6.311e-17
6.15141e-17
6.33971e-17
6.236e-17
6.07074e-17
6.36379e-17
6.04063e-17
6.32877e-17
6.43971e-17
6.28582e-17
6.38936e-17
6.0249e-17
6.07243e-17
6.24888e-17
6.31635e-17
6.44738e-17
6.32158e-17
6.31835e-17
6.24448e-17
6.39652e-17
6.4519e-17
6.38118e-17
6.42416e-17
5.94293e-17
6.41454e-17
6.20648e-17
6.35709e-17
6.12983e-17
6.04878e-17
6.16617e-17
6.66295e-17
6.28643e-17
6.55517e-17
6.26686e-17
6.48461e-17
6.27978e-17
6.49726e-17
6.23197e-17
6.55303e-17
6.65365e-17
6.35006e-17
6.15989e-17
6.26332e-17
6.65045e-17
1.11862e-16
1.20284e-16
1.20563e-16
1.16086e-16
1.20306e-16
1.17854e-16
1.23635e-16
1.18326e-16
1.12831e-16
1.151e-16
1.17287e-16
1.23386e-16
1.16271e-16
1.22866e-16
1.12672e-16
1.18699e-16
1.22458e-16
1.19832e-16
1.1689e-16
1.1573e-16
1.1264e-16
1.20155e-16
1.15313e-16
1.21908e-16
1.14537e-16
1.21861e-16
1.20232e-16
1.16317e-16
1.17267e-16
1.17946e-16
1.12573e-16
1.25256e-16
1.21706e-16
1.1703e-16
1.19636e-16
1.21359e-16
1.1886e-16
1.1431e-16
1.21278e-16
1.18133e-16
1.10161e-16
1.20071e-16
1.19803e-16
1.1991e-16
1.21354e-16
1.15095e-16
1.18908e-16
1.15624e-16
1.19049e-16
1.16721e-16
1.16425e-16
1.17836e-16
1.18207e-16
1.14741e-16
1.19873e-16
1.18819e-16
1.18785e-16
1.1593e-16
1.16212e-16
1.23198e-16
1.137e-16
1.25073e-16
1.17865e-16
1.18224e-16
1.12972e-16
1.15886e-16
1.172e-16
1.25397e-16
1.13491e-16
1.15831e-16
1.21875e-16
1.17755e-16
1.17418e-16
1.1791e-16
1.19145e-16
1.18063e-16
1.23096e-16
1.15645e-16
1.16784e-16
1.22757e-16
1.14076e-16
1.21203e-16
1.14275e-16
1.19738e-16
1.2188e-16
1.13971e-16
1.16593e-16
1.15436e-16
1.18348e-16
1.18512e-16
1.16642e-16
1.21289e-16
1.20035e-16
1.15248e-16
1.1884e-16
1.20259e-16
1.16521e-16
1.21715e-16
1.18098e-16
1.16667e-16
1.17339e-16
1.16284e-16
1.19862e-16
1.17233e-16
1.2072e-16
1.14904e-16
1.18815e-16
1.14767e-16
1.16916e-16
1.16053e-16
1.17263e-16
1.18323e-16
1.11918e-16
1.1988e-16
1.10811e-16
1.21257e-16
1.17961e-16
1.12766e-16
1.16844e-16
1.08185e-16
1.27358e-16
1.22075e-16
1.19246e-16
1.15738e-16
1.18486e-16
1.21368e-16
1.18908e-16
1.17528e-16
1.1999e-16
1.14481e-16
1.18849e-16
1.1554e-16
1.19163e-16
1.19151e-16
1.16648e-16
1.19091e-16
1.11297e-16
1.17238e-16
1.18653e-16
1.15278e-16
1.15813e-16
1.19209e-16
1.19971e-16
1.12959e-16
1.21521e-16
1.17681e-16
1.17738e-16
1.16334e-16
1.23015e-16
1.1875e-16
1.15383e-16
1.23695e-16
1.22068e-16
1.21337e-16
1.13437e-16
1.23812e-16
1.23856e-16
1.14873e-16
1.23747e-16
1.16343e-16
1.17547e-16
1.17051e-16
1.20643e-16
1.17002e-16
1.20879e-16
1.19374e-16
1.21657e-16
1.16498e-16
1.19153e-16
1.16558e-16
1.20252e-16
1.14665e-16
1.20946e-16
1.13369e-16
1.15831e-16
1.198e-16
1.16639e-16
1.21179e-16
1.15636e-16
1.19252e-16
1.19149e-16
1.18956e-16
1.13728e-16
1.15599e-16
1.1683e-16
1.18818e-16
1.1802e-16
1.13249e-16
1.21188e-16
1.21822e-16
1.12506e-16
1.16247e-16
1.19033e-16
1.16098e-16
1.1979e-16
1.1755e-16
1.12205e-16
1.1798e-16
1.17747e-16
1.18055e-16
1.22666e-16
1.17617e-16
1.20051e-16
1.22664e-16
1.10694e-16
1.14839e-16
1.19207e-16
1.15882e-16
1.17234e-16
1.17404e-16
1.18035e-16
1.2229e-16
1.20857e-16
1.1588e-16
1.16487e-16
1.20466e-16
1.19321e-16
1.21862e-16
1.14436e-16
1.1833e-16
1.17669e-16
1.19581e-16
1.16841e-16
1.17331e-16
1.24881e-16
1.20746e-16
1.15249e-16
1.2077e-16
1.18106e-16
1.16456e-16
1.16262e-16
1.13353e-16
1.20686e-16
1.18286e-16
1.19456e-16
1.18629e-16
1.18743e-16
1.15248e-16
1.13993e-16
1.14807e-16
1.18629e-16
1.18047e-16
1.16245e-16
1.21829e-16
1.16302e-16
1.16779e-16
1.24798e-16
1.12019e-16
1.14384e-16
1.13006e-16
1.19828e-16
1.18924e-16
1.1945e-16
1.17167e-16
1.17173e-16
1.13525e-16
2.30526e-16
2.20865e-16
2.14531e-16
2.16866e-16
2.17533e-16
2.1246e-16
2.2322e-16
2.24617e-16
2.16997e-16
2.27082e-16
2.25879e-16
2.29412e-16
2.25766e-16
2.21312e-16
2.17531e-16
2.17723e-16
2.14182e-16
2.23403e-16
2.15553e-16
2.14141e-16
2.23895e-16
2.21942e-16
2.11325e-16
2.19816e-16
2.24912e-16
2.1789e-16
2.17868e-16
2.24787e-16
2.12058e-16
2.16198e-16
2.20573e-16
2.28596e-16
2.27402e-16
2.19282e-16
2.15868e-16
2.15106e-16
2.15466e-16
2.1756e-16
2.15369e-16
2.13038e-16
2.15459e-16
2.20146e-16
2.25871e-16
2.12395e-16
2.25e-16
2.27092e-16
2.21222e-16
2.14363e-16
2.15079e-16
2.32323e-16
2.10412e-16
2.2327e-16
2.2121e-16
2.29281e-16
2.30771e-16
2.17933e-16
2.25457e-16
2.23422e-16
2.19152e-16
2.17527e-16
2.38667e-16
2.18848e-16
2.16705e-16
2.16566e-16
2.24156e-16
2.27906e-16
2.11968e-16
2.18156e-16
2.19667e-16
2.2435e-16
2.18282e-16
2.18978e-16
2.1185e-16
2.28018e-16
2.1337e-16
2.21677e-16
2.20609e-16
2.29699e-16
2.18326e-16
2.30178e-16
2.17893e-16
2.24887e-16
2.20892e-16
2.20955e-16
2.24776e-16
2.15541e-16
2.25403e-16
2.16879e-16
2.12705e-16
2.32472e-16
2.24006e-16
2.19023e-16
2.25755e-16
2.27262e-16
2.31611e-16
2.2176e-16
2.16939e-16
2.27088e-16
2.26474e-16
2.27701e-16
2.24017e-16
2.27058e-16
2.25279e-16
2.12282e-16
2.24879e-16
2.27781e-16
2.24682e-16
2.21788e-16
2.15646e-16
2.20999e-16
2.23924e-16
2.20176e-16
2.19823e-16
2.20095e-16
2.23093e-16
2.19128e-16
2.17648e-16
2.17638e-16
2.23623e-16
2.09062e-16
2.25828e-16
2.15434e-16
2.28259e-16
2.28549e-16
2.30088e-16
2.13239e-16
2.24077e-16
2.20625e-16
2.26235e-16
2.11755e-16
2.17382e-16
2.23676e-16
2.1654e-16
2.13929e-16
2.19662e-16
2.12104e-16
2.28066e-16
2.19981e-16
2.2075e-16
2.22412e-16
2.21904e-16
2.19613e-16
2.20777e-16
2.29577e-16
2.17086e-16
2.19514e-16
2.26487e-16
2.12377e-16
2.36735e-16
2.28777e-16
2.14088e-16
2.09473e-16
2.17115e-16
2.10014e-16
2.15543e-16
2.2393e-16
2.12247e-16
2.21052e-16
2.22726e-16
2.20954e-16
2.28882e-16
2.30508e-16
2.22233e-16
2.13131e-16
2.17772e-16
2.14465e-16
2.2011e-16
2.1699e-16
2.16522e-16
2.23713e-16
2.18743e-16
2.30808e-16
2.25576e-16
2.15731e-16
2.24798e-16
2.30967e-16
2.16911e-16
2.29736e-16
2.17651e-16
2.19577e-16
2.28763e-16
2.27096e-16
2.16116e-16
2.19126e-16
2.27587e-16
2.14244e-16
2.28872e-16
2.16987e-16
2.2226e-16
2.27179e-16
2.21427e-16
2.19838e-16
2.25026e-16
2.16758e-16
2.16694e-16
2.19195e-16
2.18553e-16
2.29471e-16
2.14171e-16
2.23823e-16
2.11602e-16
2.22403e-16
2.13053e-16
2.16258e-16
2.20707e-16
2.19161e-16
2.27832e-16
2.17188e-16
2.19781e-16
2.31533e-16
2.16777e-16
2.21366e-16
2.15651e-16
2.20725e-16
2.2767e-16
2.05885e-16
2.28222e-16
2.18875e-16
2.23817e-16
2.30106e-16
2.23881e-16
2.28968e-16
2.16281e-16
2.37994e-16
2.14375e-16
2.23625e-16
2.23977e-16
2.21125e-16
2.23008e-16
2.20787e-16
2.30375e-16
2.32928e-16
2.21215e-16
2.21599e-16
2.22183e-16
2.22243e-16
2.19311e-16
2.34699e-16
2.24159e-16
2.2087e-16
2.24421e-16
2.23958e-16
2.2023e-16
2.25187e-16
2.17446e-16
2.1453e-16
2.21094e-16
2.33224e-16
2.20196e-16
2.18096e-16
2.23553e-16
2.2056e-16
2.15506e-16
2.14486e-16
2.23201e-16
2.1975e-16
4.04213e-16
4.00185e-16
4.39317e-16
4.29836e-16
4.20777e-16
4.15123e-16
3.92578e-16
4.11385e-16
4.21271e-16
3.95475e-16
4.05739e-16
4.06993e-16
3.95469e-16
4.13159e-16
4.05889e-16
3.91584e-16
4.16814e-16
4.06477e-16
4.02605e-16
4.2461e-16
4.01826e-16
4.09448e-16
4.09864e-16
4.23472e-16
4.18089e-16
4.12512e-16
4.16358e-16
4.08752e-16
4.01347e-16
4.19178e-16
4.1221e-16
4.0668e-16
3.984e-16
4.13859e-16
4.09597e-16
4.27286e-16
4.06142e-16
4.19846e-16
4.32751e-16
4.24794e-16
4.3156e-16
3.97436e-16
4.12269e-16
4.2412e-16
4.02108e-16
4.09468e-16
4.13209e-16
4.20903e-16
4.18141e-16
4.06501e-16
4.15393e-16
4.27194e-16
4.30771e-16
4.21476e-16
3.99759e-16
3.8508e-16
4.03174e-16
4.09653e-16
4.0966e-16
4.08824e-16
4.18623e-16
4.02137e-16
3.96769e-16
4.22131e-16
4.05172e-16
3.99624e-16
4.16248e-16
4.15493e-16
4.0966e-16
4.29469e-16
4.15434e-16
4.06073e-16
4.18292e-16
4.16676e-16
4.15446e-16
4.10252e-16
4.07315e-16
4.19547e-16
4.0472e-16
4.28698e-16
4.08893e-16
4.12827e-16
4.11618e-16
4.05511e-16
4.18744e-16
4.07176e-16
4.15273e-16
4.16461e-16
3.9615e-16
3.86957e-16
3.93059e-16
4.13216e-16
4.25528e-16
3.9641e-16
4.1113e-16
4.04095e-16
4.16453e-16
4.06829e-16
4.11993e-16
3.98428e-16
4.01457e-16
4.15264e-16
4.21569e-16
3.96426e-16
4.08828e-16
4.21647e-16
4.16877e-16
4.17474e-16
4.13861e-16
4.09246e-16
4.19886e-16
4.09382e-16
4.19329e-16
4.39515e-16
4.1263e-16
3.99111e-16
4.15377e-16
4.06089e-16
4.29158e-16
4.06486e-16
4.11366e-16
3.94672e-16
4.05839e-16
3.98946e-16
4.17648e-16
3.94978e-16
4.03522e-16
3.96594e-16
3.94667e-16
4.22098e-16
4.22036e-16
4.22067e-16
3.88733e-16
4.13482e-16
4.05447e-16
4.17056e-16
4.15217e-16
4.1895e-16
4.1121e-16
4.04358e-16
4.08989e-16
4.13975e-16
4.15841e-16
3.85503e-16
4.04995e-16
4.25115e-16
4.18746e-16
4.01514e-16
4.04503e-16
4.01321e-16
3.9996e-16
4.34202e-16
4.21233e-16
3.99918e-16
4.08479e-16
4.36107e-16
4.25196e-16
4.04089e-16
3.99918e-16
4.02767e-16
4.05727e-16
4.15594e-16
4.09838e-16
4.1829e-16
4.27735e-16
4.1203e-16
4.13925e-16
4.0417e-16
4.1748e-16
4.16905e-16
4.0389e-16
4.04349e-16
3.99281e-16
4.05234e-16
3.83248e-16
4.22075e-16
4.02264e-16
4.22624e-16
4.19833e-16
4.09305e-16
4.21049e-16
4.01659e-16
4.07026e-16
4.22019e-16
4.13862e-16
4.11325e-16
4.19776e-16
3.90776e-16
4.15012e-16
4.29457e-16
3.94012e-16
4.19947e-16
4.19834e-16
4.22729e-16
4.11007e-16
4.23832e-16
4.03844e-16
4.10328e-16
4.06921e-16
4.2238e-16
4.09036e-16
4.16783e-16
4.26112e-16
4.07164e-16
4.03133e-16
3.85006e-16