# vtk DataFile Version 1.0
Net Charge Density
ASCII
DATASET STRUCTURED_POINTS
DIMENSIONS 256 128 1
ORIGIN 0 0 0
SPACING 0.15625 0.15625 1
POINT_DATA 32768
SCALARS rhonet float
LOOKUP_TABLE default
-3.89619e-06
-9.51273e-05
0.000144791
9.63219e-05
3.56848e-05
0.000120451
-0.000118445
9.1858e-05
0.000154216
2.28991e-05
-3.75605e-05
0.000108726
0.00010382
7.94453e-05
0.000109346
4.99606e-05
8.77432e-05
0.000140235
4.05876e-05
-6.79102e-05
-6.4068e-06
0.000141859
0.000144767
4.77821e-05
3.7268e-05
2.07422e-05
7.74219e-05
9.05892e-05
-1.35215e-05
-7.27426e-05
5.23026e-05
3.9723e-05
4.36691e-05
6.90082e-05
1.24414e-05
0.000171713
1.68075e-05
7.28727e-05
7.73576e-05
-5.53043e-06
2.2932e-05
6.83242e-06
0.000136404
9.39813e-05
2.09392e-05
1.86831e-05
-3.16133e-05
6.95547e-05
0.000116214
7.88723e-05
-1.20074e-05
2.49782e-05
8.34424e-05
0.000148995
3.55951e-05
1.75039e-05
0.000151011
-5.17471e-05
5.67816e-06
7.16955e-05
5.02794e-05
6.06016e-05
7.16816e-06
8.01799e-05
8.22491e-05
-8.03831e-05
4.41822e-05
0.000136175
4.09953e-05
4.82837e-05
7.9234e-05
3.67112e-05
-2.69157e-05
4.9668e-05
-1.14786e-07
5.11557e-05
4.20861e-05
-3.8308e-05
9.21623e-05
0.000106615
8.71841e-05
2.54081e-05
7.49613e-05
0.000101106
4.5468e-05
-4.48013e-06
-1.66912e-05
6.70491e-05
0.000119669
-2.34882e-05
9.00027e-05
-1.4795e-05
-3.90527e-05
-6.21472e-06
-8.99181e-05
5.2272e-05
0.000157961
2.4097e-05
9.16884e-05
-2.49445e-05
0.000157723
9.09187e-05
-3.16952e-06
9.47256e-05
3.90385e-05
0.000130971
-2.58209e-07
-6.85494e-05
2.66265e-06
7.39999e-05
0.00013342
5.79276e-05
2.02984e-05
3.31156e-05
8.04216e-05
4.36592e-05
1.22659e-05
7.49687e-05
5.096e-05
4.32276e-05
-3.98807e-05
-3.45634e-05
4.04443e-05
2.44895e-05
0.00011572
6.60875e-05
1.82551e-05
8.13092e-05
1.99641e-05
-1.88098e-05
0.000119796
9.26161e-05
-2.24437e-06
3.77489e-05
2.03243e-05
6.79668e-06
4.46092e-05
-3.19163e-05
4.68964e-05
-1.1503e-05
-4.98404e-05
2.32952e-05
2.09624e-05
0.000160761
9.88224e-05
2.06346e-06
0.000137836
1.15247e-05
-3.11241e-05
0.000132418
1.78274e-05
2.91318e-05
0.000108428
-8.34535e-06
3.45046e-05
4.32305e-05
5.74661e-06
3.42714e-05
-5.27664e-06
1.75426e-05
7.6778e-05
2.50085e-05
0.000112709
-2.20696e-05
3.25851e-05
2.55228e-05
5.84618e-05
-6.12724e-05
0.000105448
0.000137296
2.50291e-05
4.32241e-05
7.45821e-05
0.000111579
-2.02684e-05
-8.13359e-06
8.72934e-05
-8.23223e-05
1.15578e-05
3.31802e-05
8.8769e-05
-7.05998e-05
-3.18108e-05
5.65371e-06
1.0499e-05
7.98533e-05
4.14199e-05
7.20927e-05
0.000102554
7.46852e-05
2.48838e-05
0.000198125
8.16121e-05
-6.56995e-05
6.242e-05
0.000201229
4.75222e-05
8.32755e-05
7.86668e-05
-1.63085e-05
5.95986e-05
0.00014917
4.39014e-05
3.83349e-05
-1.00755e-05
6.97705e-05
-5.98883e-05
5.34233e-05
6.86803e-05
8.57901e-05
6.8102e-05
0.000137439
0.000106097
-2.40525e-05
0.000111081
-0.00013128
0.000102691
9.90946e-05
-5.28726e-05
-3.79215e-05
8.69746e-05
0.000114878
0.000176992
3.40519e-05
7.95294e-05
5.67446e-05
-3.69134e-05
-1.51403e-05
8.69037e-05
6.86069e-05
6.22822e-06
4.16546e-05
2.36377e-05
2.60699e-05
0.000121307
-3.557e-05
-2.05773e-05
2.75013e-05
5.94513e-05
8.97888e-06
1.8499e-05
8.66939e-05
-5.82668e-05
-3.06871e-07
2.659e-05
-1.44094e-05
-2.21955e-05
-3.95464e-05
0.000128655
-4.29619e-06
2.10485e-05
-3.85133e-05
0.000102293
2.1438e-05
2.40527e-05
4.18613e-05
-0.0001049
2.47051e-05
-6.30285e-05
-2.51192e-05
-2.38868e-05
5.12255e-05
-2.60448e-05
-7.57638e-05
4.9893e-05
-6.6046e-05
-4.29001e-05
2.33412e-05
-5.99084e-05
-8.02729e-05
3.002e-06
-4.24266e-05
4.6622e-06
1.08911e-05
-2.15754e-05
-4.06022e-06
-5.82077e-05
-6.74946e-05
-0.000106138
-1.79202e-05
-2.00451e-05
-5.72717e-05
-2.52763e-05
7.73056e-06
-3.07411e-05
-8.53868e-05
-3.53891e-05
-8.3613e-06
2.7442e-05
-7.9568e-05
-6.67478e-05
2.31331e-05
-0.000103178
-3.37883e-05
1.98345e-05
-8.20331e-05
-5.15863e-05
-4.38419e-05
8.67271e-06
3.55995e-05
-2.47123e-05
4.87431e-06
-0.000112385
-3.15171e-05
3.88797e-05
-3.39411e-05
-6.5613e-05
-4.11931e-05
-3.17376e-05
2.98235e-05
-2.85315e-05
-3.5457e-05
-2.34868e-05
-0.00011611
1.48101e-05
-3.37932e-05
4.56311e-05
-5.12691e-05
-5.72854e-05
-3.73453e-05
-3.01475e-05
-6.05669e-05
-1.00288e-05
-7.96346e-05
-0.000109192
1.21043e-05
-4.39811e-05
9.01718e-06
-1.84359e-05
1.72422e-05
-5.13539e-05
-1.04335e-05
4.76099e-05
-2.5494e-05
5.74091e-05
2.16532e-07
-3.24124e-05
-5.0444e-05
-8.22557e-05
2.84829e-05
2.44663e-05
-6.16945e-05
-0.000158637
-4.16979e-05
-6.58911e-08
-1.69142e-05
8.77352e-06
5.33122e-05
3.15625e-06
-1.07938e-05
2.4714e-05
-5.965e-06
3.43234e-05
-2.73113e-05
-6.84685e-06
-1.89501e-06
-4.36432e-05
-0.000106617
-3.96518e-05
-2.96775e-05
-3.55598e-05
1.64222e-05
-5.91245e-05
-4.27184e-05
-1.06718e-06
-5.99911e-06
5.43521e-05
-3.54243e-05
-7.13803e-05
-7.13195e-05
4.01698e-05
1.15474e-05
-5.23517e-05
-1.11545e-05
9.64501e-06
3.18992e-05
-8.57748e-05
1.39616e-05
-6.13794e-05
-7.74174e-06
-3.48634e-05
-1.67097e-05
-4.55659e-05
-6.9603e-05
1.70248e-05
-4.88112e-05
-2.07967e-05
1.59816e-05
-1.05534e-05
-2.35443e-05
-1.24408e-05
-3.31046e-05
-4.60122e-05
-1.33582e-05
-4.22456e-05
-8.32311e-06
-5.94474e-05
-7.82579e-05
8.69716e-06
-2.01957e-06
-8.38251e-05
1.05489e-05
-3.22358e-05
-4.36762e-05
-0.000117681
-8.72533e-06
-3.9958e-05
-3.83077e-05
-7.16747e-05
9.37085e-06
3.00054e-05
-1.70409e-05
-2.39995e-05
-1.85566e-06
-5.11224e-05
-2.02564e-05
-8.13492e-05
-6.40946e-05
3.62427e-05
-8.02709e-05
-7.56339e-06
2.37457e-05
2.2117e-05
-5.27811e-05
-2.42493e-06
3.60707e-05
-9.46565e-05
1.02371e-05
-2.21481e-05
3.9703e-05
-4.13512e-05
-2.55483e-05
-5.70028e-06
3.04057e-05
-6.90698e-05
-4.77678e-05
3.67507e-05
-4.79631e-06
2.05869e-06
-4.86561e-05
-0.000107547
-6.60243e-05
-2.66001e-05
-2.24798e-05
-9.32976e-06
-1.88574e-05
-0.000101449
6.32287e-06
3.69598e-05
4.61075e-06
-1.0849e-05
-2.3655e-05
-8.50843e-05
-3.90911e-05
4.811e-05
-6.97759e-06
-7.51881e-05
-6.46282e-05
-4.37897e-05
3.07561e-05
-5.53508e-05
1.83063e-06
-5.12165e-05
9.71672e-05
1.17968e-05
-4.14064e-05
-5.2241e-05
-4.83999e-05
-4.73997e-05
3.21256e-05
-3.50832e-05
-7.29874e-05
1.69827e-06
-2.53877e-05
-1.98884e-05
4.50597e-06
-1.73199e-05
7.05676e-05
5.70893e-05
-6.70664e-05
-3.48983e-05
-2.73386e-05
-7.0205e-05
-2.06067e-05
2.42677e-05
8.58862e-05
-8.70344e-05
6.93474e-06
-4.34532e-05
-3.62699e-05
6.9032e-05
3.75882e-05
-6.27581e-05
-4.99142e-06
2.55422e-05
-5.11215e-05
2.26249e-05
-1.34828e-05
-4.80209e-05
-1.98238e-05
3.05509e-06
3.73246e-05
3.42678e-05
-1.23484e-05
-2.31676e-05
-0.000132199
-1.67056e-07
-7.60681e-06
5.12581e-05
-7.35291e-06
-7.36319e-05
5.01669e-06
-3.30424e-05
-1.9914e-06
5.00255e-05
-7.7975e-06
-2.33894e-05
-8.48016e-06
1.05414e-06
-1.9229e-05
7.13236e-05
-5.15231e-05
7.82288e-06
3.11629e-05
6.53439e-05
-4.67901e-05
-2.90641e-05
-1.14905e-05
-2.49569e-05
-9.34283e-05
-2.04819e-05
3.51591e-05
4.88632e-05
3.64077e-05
-1.64525e-05
3.77699e-05
6.1458e-05
-4.75247e-05
4.48455e-05
4.40085e-05
9.82312e-06
-5.10867e-05
1.2307e-05
2.34441e-05
7.04301e-05
4.96682e-05
-3.57148e-05
2.25289e-05
5.27385e-06
-2.51164e-05
4.80089e-05
3.40395e-05
2.11629e-05
-2.89198e-05
-7.34262e-05
2.16753e-05
3.48729e-05
1.4212e-06
-4.63354e-05
1.81748e-06
-1.65711e-05
5.22441e-05
1.92709e-05
-4.25099e-05
-9.05942e-05
6.88434e-06
2.94282e-05
9.43255e-06
3.9076e-05
-4.01761e-05
2.79769e-05
-3.30698e-05
9.02752e-05
1.87058e-05
2.19358e-05
-2.38945e-05
3.89219e-05
7.95068e-05
-1.42993e-06
-1.07865e-05
-4.3123e-05
-5.63425e-05
3.65558e-05
5.69131e-06
-2.97661e-05
3.18505e-05
-3.75106e-05
-1.97684e-05
6.36959e-05
5.06415e-05
-4.80588e-05
-4.1877e-05
-9.31229e-06
-2.6356e-05
-1.33658e-05
5.09446e-05
7.4107e-05
-1.38808e-05
-5.52135e-05
-6.02386e-05
2.25466e-05
4.01651e-05
-3.56472e-05
4.60861e-05
6.04033e-05
1.00422e-05
-2.72854e-05
-6.84023e-05
1.03847e-05
-3.90667e-05
-6.67316e-05
1.89329e-05
-3.86651e-05
-7.26087e-05
1.55341e-05
3.44659e-05
-9.18168e-06
-2.52385e-05
3.49989e-05
6.71941e-05
-7.81438e-06
-2.34848e-05
1.90873e-05
-3.45565e-05
-3.24682e-06
3.17621e-05
-4.33621e-05
-4.44571e-05
-1.29163e-05
6.19071e-05
-1.54723e-05
-1.92425e-05
-9.34e-07
1.07804e-05
-2.67865e-05
6.43284e-05
6.2841e-07
3.16114e-05
-3.45439e-05
-2.02107e-05
3.29809e-05
-8.92929e-06
-5.33778e-05
-6.5838e-05
-1.97736e-05
2.38325e-06
3.65477e-05
8.36793e-06
-1.87778e-06
1.48292e-05
-2.75736e-05
4.24775e-05
2.79524e-05
9.69106e-05
6.65832e-05
1.94265e-05
1.4567e-05
-1.36637e-05
5.90174e-05
5.77695e-05
-3.53305e-05
8.65561e-05
-1.88483e-05
-2.10222e-05
-5.39361e-05
1.1234e-05
-1.22989e-05
7.03164e-05
-1.07866e-05
6.14917e-06
5.77932e-05
3.47513e-05
-3.56394e-05
-5.85604e-06
4.38273e-05
2.99957e-05
1.48884e-05
3.09432e-06
-6.29972e-05
1.44138e-05
-9.34465e-05
4.10881e-05
-3.3416e-05
-7.29715e-05
6.78655e-06
-4.31379e-05
3.26063e-05
-5.40693e-05
-3.51892e-05
-7.3812e-06
-3.46786e-05
7.78143e-06
5.28591e-05
1.66988e-05
-1.61515e-06
7.61889e-05
-2.89571e-06
5.27899e-05
3.30987e-05
2.69053e-05
3.20115e-05
-4.1401e-05
-7.91211e-05
6.70366e-06
-3.7106e-05
3.38652e-07
3.12875e-05
2.55895e-05
4.62432e-05
-7.34441e-06
3.85573e-05
-1.82481e-05
8.60399e-05
-3.51764e-05
-2.42105e-05
-2.44783e-05
3.96876e-05
3.96366e-05
-5.5962e-06
-1.59816e-05
5.26491e-05
-3.12822e-05
-9.51323e-06
1.32091e-05
3.03079e-05
4.0144e-05
-6.21299e-05
6.55744e-06
-4.02799e-05
7.68164e-05
-2.30566e-05
2.42691e-06
-2.36238e-05
-7.65675e-06
1.05589e-06
-7.58459e-05
1.89053e-05
4.24925e-05
2.7332e-06
-4.68807e-05
-0.000111356
2.32974e-05
1.92825e-05
1.66951e-06
4.11412e-05
-1.26262e-05
3.11434e-06
-2.15395e-05
-7.41893e-05
3.57796e-05
1.8166e-05
-4.43211e-05
1.3806e-05
2.49416e-05
-1.40069e-05
-5.45266e-05
-1.59669e-05
4.8483e-05
-4.49945e-06
-0.000139602
5.79738e-05
3.08059e-05
0.000100899
-3.72751e-05
3.8272e-05
1.96724e-05
-2.19458e-05
-3.16998e-05
-3.15025e-05
5.79793e-05
8.84752e-05
-9.06747e-06
-5.99883e-05
9.21881e-06
8.46386e-06
-1.83936e-08
-2.07848e-05
-3.90375e-05
0.000130274
-3.43212e-05
-4.70522e-05
5.37114e-05
-2.7963e-06
2.82272e-06
-3.79193e-05
-6.05406e-05
4.75422e-05
4.84358e-05
-1.7537e-05
3.74633e-05
-5.19102e-05
4.18175e-05
3.39497e-05
-6.99725e-05
2.73655e-05
3.88059e-05
1.67808e-05
-5.26786e-05
6.28687e-05
-2.19624e-05
-4.31007e-05
-7.40332e-06
-2.66789e-05
4.25465e-05
3.65009e-06
2.75727e-05
-4.73878e-05
-6.43684e-06
3.03094e-05
-2.263e-05
-8.19342e-05
-4.9582e-05
1.36235e-05
3.36362e-05
4.53517e-05
-3.78166e-05
6.72048e-05
-2.02059e-05
-6.23036e-05
4.74696e-05
4.62761e-05
1.24056e-05
3.82885e-05
2.15032e-05
5.87145e-05
-6.50005e-05
-4.25663e-05
-1.3412e-05
4.3906e-05
4.78703e-05
-2.23203e-05
-6.05177e-05
1.98302e-06
-2.4375e-06
-3.00119e-05
1.48918e-05
2.92046e-05
7.28867e-05
7.06634e-05
-3.58252e-05
-0.000140628
2.58456e-05
1.20315e-06
-2.88258e-05
-4.69702e-05
5.72422e-05
3.12584e-05
1.75566e-05
-0.000107817
-1.58467e-05
1.13324e-05
3.9952e-05
3.2814e-05
-4.30103e-05
3.20367e-05
3.74886e-05
-3.91935e-05
2.83313e-05
3.71943e-05
-1.37144e-05
3.56364e-05
-5.44166e-05
8.30449e-05
3.03247e-05
-1.9427e-05
-2.67292e-05
6.84276e-05
4.12179e-05
-2.91595e-05
3.35348e-05
3.92136e-05
3.6837e-05
-3.48373e-05
-2.81518e-05
1.41672e-05
3.52949e-05
-7.15668e-05
-2.1616e-05
4.6005e-05
3.64993e-05
2.31861e-05
-3.12354e-05
-7.13486e-05
2.25478e-05
-3.52726e-05
7.69855e-05
-4.16436e-05
-1.37861e-05
7.4514e-05
-5.40668e-05
4.00399e-06
-1.77845e-05
-5.58053e-05
2.01232e-05
5.96e-06
5.05815e-05
6.3116e-05
-6.58258e-05
8.14187e-05
-4.32236e-05
-2.44337e-05
2.67203e-05
4.39445e-06
9.56806e-06
7.65512e-06
4.39119e-06
-4.22159e-05
2.17033e-05
1.01277e-05
-1.56355e-05
-7.88145e-05
-2.79716e-05
-7.33149e-06
2.62831e-05
6.22845e-06
2.38395e-05
-8.04104e-06
5.26161e-05
3.00964e-05
-3.07956e-05
-8.68589e-05
1.14745e-05
3.87334e-05
1.11607e-05
-2.85619e-05
-9.12452e-06
-2.48151e-06
2.21184e-05
-3.23006e-06
2.53445e-05
2.25466e-05
3.20962e-05
-2.0874e-05
-3.06265e-06
6.05569e-06
-3.414e-06
3.49663e-05
-2.44875e-05
5.34735e-05
1.96629e-05
1.27888e-05
-1.1569e-05
2.9253e-05
2.87103e-06
3.39589e-05
-1.87167e-05
-2.88663e-06
-6.90417e-05
2.46685e-05
-5.03915e-06
-1.2684e-05
2.05981e-05
-2.63399e-05
-2.66172e-06
-3.02474e-05
-7.38932e-05
-1.16547e-05
0.000124286
-9.67181e-05
2.30568e-05
4.08883e-05
1.12084e-05
1.89698e-05
2.2975e-05
-6.50401e-05
-1.85563e-05
-3.58941e-05
9.88855e-06
-2.25084e-05
-0.000114619
5.06437e-05
-0.000120174
-5.21556e-05
0.000129995
-2.85542e-05
-3.29316e-05
1.39814e-05
-3.08815e-06
-4.58444e-06
-6.87171e-05
5.01168e-07
2.54059e-05
-3.06813e-05
-4.83698e-05
-2.09836e-05
3.77458e-05
3.99081e-05
1.09901e-05
-3.3776e-05
2.43062e-05
4.91922e-05
4.58604e-05
-7.13924e-05
-6.57425e-05
-4.48681e-05
5.14659e-05
2.45112e-06
-1.54716e-06
-6.96704e-05
3.4261e-07
-1.04237e-05
6.89446e-06
-2.29044e-05
-2.35578e-06
-3.06217e-05
3.27418e-05
-3.2268e-06
-1.03372e-05
-2.52562e-05
2.84621e-05
9.5223e-05
-3.02619e-05
3.21714e-05
4.43812e-05
-4.54092e-05
-0.000101101
-3.30776e-05
0.00011101
6.2544e-05
-5.28279e-05
-0.000107186
-1.18127e-05
6.85672e-05
3.46119e-05
-5.40465e-05
-5.2138e-05
4.7517e-05
-4.06369e-05
-0.000119436
6.12038e-05
-1.81564e-05
-3.11725e-05
0.000105493
-4.54732e-05
-9.29441e-05
-5.38458e-05
9.50578e-06
-5.5499e-05
1.67228e-05
4.28152e-06
-7.23696e-05
6.52426e-06
4.59249e-05
6.77723e-06
-2.06707e-06
5.32221e-05
2.83383e-05
-3.75978e-05
-4.85516e-05
0.000104193
-1.62806e-05
-5.72787e-06
-2.96998e-05
-2.67255e-06
-4.58122e-05
8.22777e-06
-1.3111e-05
-4.38888e-05
-3.36709e-05
-5.49546e-05
4.80602e-05
-3.43904e-05
5.50936e-05
-3.26772e-05
-2.4994e-05
-9.60939e-06
3.26964e-05
-4.3438e-05
8.2174e-05
3.99037e-06
1.01078e-05
-2.64164e-05
-1.68558e-06
5.18315e-05
-5.0523e-05
7.65339e-05
-2.69972e-05
-2.84481e-05
5.25324e-06
1.91292e-05
5.75273e-05
-1.55072e-05
1.41476e-05
1.54795e-05
9.67542e-05
-2.60593e-05
2.79758e-06
-6.86488e-05
-4.36464e-06
5.35557e-06
-6.23055e-07
-1.12271e-05
2.76115e-05
-7.06454e-05
2.38866e-05
3.64638e-05
-5.86105e-06
-1.47324e-05
5.85362e-05
-1.46369e-06
5.05708e-07
-8.36398e-06
-6.68822e-05
-7.45873e-06
-5.6677e-05
5.49143e-05
-1.55681e-05
-6.51169e-05
1.93972e-05
-2.5009e-05
1.49548e-05
4.44497e-05
-8.87853e-06
-5.64915e-05
-7.07041e-05
-8.34209e-06
-2.963e-05
-2.15298e-06
-1.83214e-05
-1.89291e-06
-0.000102778
8.74791e-06
3.24822e-05
3.07962e-05
-0.000103662
-3.61555e-05
2.02424e-05
8.39108e-05
4.75324e-06
-1.31459e-05
3.19695e-05
7.14557e-07
-3.71368e-05
-7.51378e-05
-6.92118e-05
-2.21271e-06
-7.09705e-05
1.36707e-06
-4.37519e-05
5.21006e-05
-3.20331e-05
-2.11226e-05
9.38214e-06
-1.06078e-06
4.85126e-06
-2.59295e-05
5.72975e-05
-2.03839e-05
4.02207e-05
1.71231e-05
-4.36114e-05
4.79119e-06
-4.09898e-05
-3.49013e-07
2.30944e-05
-3.31621e-05
1.34482e-05
1.23589e-05
-2.61038e-05
-4.63813e-05
1.17682e-05
-4.40205e-05
0.000100773
4.16172e-05
5.95755e-05
5.7274e-06
3.63542e-06
3.7217e-05
-2.83867e-05
-2.65326e-05
-3.87031e-05
-3.32438e-05
-2.94473e-06
-4.83484e-06
-7.42383e-05
-9.2118e-05
-4.12925e-05
9.36039e-05
1.79687e-05
2.46145e-05
5.07899e-05
-3.90919e-05
-4.86936e-05
-6.07772e-05
2.91875e-05
-7.01526e-05
2.39778e-05
5.71003e-05
1.43808e-05
-8.5445e-05
6.4892e-05
5.6416e-06
1.15009e-05
-0.000120717
5.33737e-05
7.36078e-05
5.39119e-06
1.38734e-05
1.18413e-05
-9.65106e-06
3.66955e-05
-3.03432e-05
4.71816e-05
6.17246e-05
-4.68129e-06
-4.04327e-05
-2.984e-05
4.83356e-06
-1.19221e-06
4.36949e-05
-1.84926e-06
-1.13774e-05
-1.70611e-05
7.82479e-05
-4.58409e-06
1.79142e-05
-3.62857e-05
-7.78632e-05
7.38346e-05
-9.19311e-05
-5.20784e-06
2.09282e-05
2.30595e-06
7.0589e-05
3.83814e-05
7.42124e-06
5.50146e-05
-1.01447e-05
4.60944e-05
-1.68374e-05
-5.88752e-05
-4.91891e-05
5.14215e-05
5.45888e-05
-1.9853e-05
5.81008e-05
3.02007e-05
1.38804e-05
2.24963e-05
6.25562e-05
6.90215e-06
-8.80086e-05
-1.34255e-05
-5.00772e-06
4.87001e-05
5.9925e-05
6.30915e-05
1.4269e-06
2.14428e-05
-2.66386e-05
-9.90462e-06
-6.22044e-05
-1.60283e-05
3.25947e-05
-3.85359e-05
-1.90416e-05
5.31547e-05
-2.28166e-05
1.54099e-05
-4.23559e-05
-5.64731e-07
-5.11487e-05
-1.0791e-05
-0.000114607
2.06346e-05
1.91701e-05
7.28539e-05
2.73274e-05
-4.94906e-05
5.05786e-05
5.27868e-05
6.41997e-05
-7.98993e-06
4.43973e-05
-4.86511e-05
-2.5887e-05
-3.12885e-05
9.76642e-05
-4.46022e-05
-4.87099e-05
2.70449e-05
-5.0458e-05
1.36549e-05
-9.01832e-05
-0.000131356
6.04796e-05
5.67493e-05
-1.70093e-05
2.47729e-05
-9.10833e-06
5.16702e-05
-8.06585e-05
3.82912e-05
3.78343e-05
1.59069e-05
-7.97596e-06
-6.65523e-06
3.57417e-05
3.13767e-05
-9.32621e-05
-4.72957e-05
-9.38075e-05
-4.97692e-05
6.84744e-05
-3.5439e-05
9.14535e-06
-3.66229e-05
3.8721e-05
1.69351e-05
4.47605e-05
-5.40493e-05
2.94939e-05
6.61321e-05
1.22413e-05
-6.64287e-05
1.13354e-06
1.48166e-05
-1.36936e-05
6.08946e-05
-9.08854e-07
7.89308e-05
9.09658e-06
5.2616e-05
-9.66378e-05
3.41132e-05
6.60541e-06
-1.27819e-05
-4.43454e-05
-2.06704e-05
3.15032e-06
-9.30391e-07
-6.30615e-05
-0.000100799
-4.15876e-05
-9.1508e-05
-4.81863e-05
5.62922e-05
-1.52459e-05
-5.22907e-05
-2.41206e-05
-1.08295e-05
-4.57688e-05
-4.23098e-05
1.19052e-05
2.83608e-05
-1.41363e-05
-5.28244e-05
-6.13475e-05
1.77325e-05
1.07327e-05
-2.08279e-05
5.96307e-05
1.79047e-06
2.51203e-05
-2.36356e-05
5.88677e-05
3.18954e-05
4.76105e-05
-7.31893e-05
7.22467e-05
-0.000100922
-6.24091e-06
6.49313e-05
8.48947e-06
3.23072e-05
-3.30713e-06
-4.32198e-05
2.37837e-06
1.99964e-05
-1.27291e-05
9.59355e-06
3.61394e-05
2.75429e-05
6.92138e-05
-2.72389e-06
-6.32238e-05
-6.14556e-06
-7.611e-06
-1.02114e-05
4.45037e-05
5.20132e-06
2.67314e-05
-6.62997e-06
-4.79887e-06
-2.94801e-05
1.43551e-05
5.68922e-06
6.79198e-05
9.01218e-06
3.43906e-05
1.84246e-05
1.29037e-05
-4.46521e-05
3.45936e-05
3.3655e-05
1.9382e-06
-1.88093e-05
4.4688e-05
-5.23897e-05
6.7537e-05
7.74651e-05
6.37234e-06
8.13849e-05
-3.18106e-05
2.20664e-05
-1.73562e-05
-2.87803e-05
-6.86573e-05
1.19236e-05
2.47911e-05
1.23703e-05
-3.48676e-05
2.16775e-05
-2.20751e-05
-3.52529e-06
1.23351e-05
1.70968e-06
2.97133e-05
-6.88559e-05
-1.33733e-05
9.18959e-05
-3.43511e-05
1.47283e-05
-1.23638e-05
4.9457e-05
2.42064e-05
-4.44687e-05
5.05934e-05
0.000106778
9.66932e-05
6.52508e-05
8.89762e-07
-7.20704e-06
-1.14567e-05
6.66901e-05
-5.448e-06
4.01791e-05
-2.33981e-05
4.17558e-05
-3.41272e-05
-2.13977e-05
6.28107e-06
-2.62642e-05
3.58209e-05
-8.93143e-05
4.69465e-05
-3.5755e-05
3.30247e-05
2.34637e-05
-9.97116e-05
2.21338e-05
3.57019e-05
-1.87461e-05
2.13267e-05
-6.78233e-05
2.71617e-05
-5.16978e-05
5.68144e-05
4.88436e-05
-1.74807e-05
3.80412e-05
4.54171e-05
1.17876e-05
-8.37969e-06
2.07499e-05
-2.05642e-05
5.28252e-05
-7.57064e-05
-4.26271e-05
-7.67247e-06
2.04986e-05
-1.54355e-05
-3.1233e-05
1.17399e-05
6.21653e-05
4.88085e-05
4.33612e-06
-0.00012757
-5.02244e-05
-6.86673e-05
-6.60997e-05
3.09134e-05
7.6151e-05
-7.0136e-05
-7.0302e-06
9.28564e-06
4.82404e-05
3.83961e-06
8.47317e-06
-6.75764e-05
-1.85831e-05
1.21733e-05
-8.66817e-06
-3.19523e-05
-1.4283e-05
3.18442e-06
7.33079e-06
1.8241e-05
2.56513e-05
-6.7884e-05
-4.71424e-06
3.4929e-05
-5.05331e-05
1.07945e-05
-1.50145e-05
-1.63049e-05
-2.95393e-05
9.53887e-05
2.63903e-05
-1.76689e-05
-2.15019e-05
-1.27994e-05
8.03289e-06
-1.35808e-05
2.63902e-05
-7.18515e-06
-1.90847e-05
2.17274e-05
5.39323e-05
-9.03434e-05
5.79039e-05
-1.44775e-05
-1.46053e-05
-3.83228e-05
-4.5439e-05
2.61621e-05
5.74819e-05
2.07163e-05
1.80585e-05
2.61941e-05
-7.22194e-06
-2.65965e-05
2.38707e-05
-3.81793e-05
-3.29989e-05
2.86611e-05
4.19596e-06
5.34141e-05
-1.29021e-05
-4.54625e-06
9.10495e-05
1.63318e-05
1.69139e-05
-4.63275e-05
3.55743e-05
-3.91718e-05
2.29459e-05
1.72228e-05
3.08629e-06
6.80585e-05
6.72813e-05
-1.70232e-05
-7.54674e-06
4.55859e-05
-1.23875e-05
-6.61274e-06
0.000122597
3.26277e-05
1.82128e-05
2.49493e-05
-5.22538e-05
-2.22394e-05
-5.70164e-05
1.30455e-06
7.69016e-06
2.41782e-05
1.07716e-05
-5.20683e-05
1.76708e-05
6.44929e-05
-6.11886e-05
5.44074e-05
-4.49321e-05
-7.05204e-05
6.23066e-06
3.27919e-05
4.70871e-05
1.32655e-06
1.32956e-05
-7.78604e-05
-2.8183e-05
-6.89283e-06
0.000112601
3.68478e-05
-3.34257e-05
4.85624e-05
3.18346e-05
1.14889e-05
6.94902e-05
0.000133271
-7.38585e-05
-4.20366e-05
-1.68968e-05
2.04104e-05
8.13243e-06
-1.95543e-05
3.47552e-05
5.0591e-05
-6.30392e-05
-4.22691e-05
1.79625e-05
5.70345e-05
-6.66478e-07
2.83982e-05
-3.47802e-05
-8.23162e-05
-3.1693e-05
-5.51025e-05
-1.6948e-05
6.43992e-05
-5.57773e-05
5.25217e-05
-0.00011234
-7.10648e-05
-1.52233e-05
-1.6027e-05
-3.59304e-05
5.28323e-05
4.40276e-05
-4.75463e-06
-6.05785e-05
-2.03252e-05
1.72127e-05
2.40905e-05
-2.15006e-05
-3.80275e-05
1.84212e-05
-5.22973e-05
-1.48044e-05
-9.04262e-05
-1.86138e-05
-1.40986e-05
0.000121307
-2.54702e-05
5.25208e-05
3.79473e-05
3.11935e-05
-3.85307e-05
-5.10272e-06
-4.49659e-05
2.62951e-05
1.12427e-05
-1.86053e-05
1.74433e-05
-3.76218e-05
8.71078e-06
-3.17954e-05
7.1465e-05
-7.4702e-05
0.000101809
5.19647e-05
3.18054e-05
1.94153e-05
4.63654e-05
-3.00515e-06
1.62398e-05
7.99994e-05
3.67593e-06
-1.37991e-05
-5.21091e-05
-5.62189e-05
2.68223e-05
-3.78022e-05
-4.78231e-05
2.88627e-05
-2.68992e-05
-1.16547e-05
-5.02804e-05
3.10764e-05
-2.00599e-05
3.8109e-05
-8.71741e-05
-4.69049e-05
1.67185e-05
4.92434e-05
9.12813e-06
1.42597e-06
-6.69417e-05
-7.27301e-05
-1.43616e-05
-9.74466e-06
-1.56978e-05
2.67376e-05
-9.21222e-05
-5.88649e-05
-1.25875e-05
5.10603e-05
-8.97486e-05
7.8602e-05
1.30897e-05
1.5168e-05
-0.000114672
-4.19709e-05
1.06483e-05
8.84163e-05
-6.75325e-06
-6.9309e-06
1.0808e-05
-9.15193e-05
-1.49587e-05
1.07787e-05
5.18084e-05
-3.28288e-05
4.25937e-05
9.43057e-06
7.85687e-07
4.03608e-05
-3.83437e-06
2.66727e-05
-2.21874e-05
6.11413e-07
2.16416e-06
1.83085e-05
-2.01636e-05
-7.52349e-05
-8.20153e-05
-4.08834e-05
3.06881e-05
3.11449e-05
-1.76035e-05
-1.14897e-05
3.87504e-05
9.27458e-06
1.17535e-05
-4.4487e-05
-5.27482e-05
-4.26522e-05
9.60721e-05
-3.91066e-05
-6.17565e-05
-4.51248e-05
4.72018e-06
-4.15777e-05
-1.74786e-06
2.57667e-05
4.81141e-05
-3.50769e-05
2.8915e-05
3.42637e-05
2.19487e-05
-2.03149e-05
-2.84294e-05
2.95846e-05
6.23253e-05
1.81489e-05
-1.77096e-05
-4.22897e-05
-3.51819e-06
6.32219e-05
3.54636e-06
7.63196e-06
-5.29434e-06
1.01695e-05
2.74983e-05
2.91367e-05
-2.60756e-05
-5.97392e-05
8.67876e-05
3.29317e-05
-1.4573e-05
-1.42369e-05
5.72901e-05
3.84287e-06
9.81889e-05
0.000121367
-2.8594e-05
2.49979e-05
7.872e-06
-1.86712e-05
-1.70157e-05
-7.32372e-05
0.00011208
-1.25971e-05
-6.01783e-05
7.86234e-06
3.08842e-05
9.78436e-06
7.8408e-06
1.71367e-05
4.79631e-08
-2.67223e-05
-2.5681e-05
-4.13369e-05
-4.55836e-05
-1.76234e-05
-7.76618e-06
-4.82695e-05
7.13976e-05
1.64245e-05
3.01739e-05
-3.19601e-05
1.39839e-05
-1.394e-05
-1.55892e-05
4.47594e-06
-1.65859e-05
8.27655e-05
5.56016e-05
5.67245e-06
3.54119e-05
2.86195e-06
-1.63056e-05
2.07495e-05
9.63267e-06
-1.45014e-05
-4.88879e-05
-4.07479e-05
-9.69227e-06
4.12578e-05
-2.158e-05
-3.41526e-05
5.64973e-05
-1.37317e-05
-5.04201e-05
3.84743e-05
-2.3362e-05
-1.19547e-06
-5.94468e-05
5.95232e-06
6.40078e-05
-7.39729e-05
-2.23713e-05
-4.28862e-06
-7.43165e-05
-1.58099e-05
5.60062e-05
-2.41022e-05
5.20142e-05
4.58721e-05
-3.1643e-05
0.000122277
2.89963e-05
1.20702e-05
-2.74093e-05
-3.44679e-05
-3.20203e-05
5.98457e-05
4.27903e-05
-2.54269e-05
-1.62858e-05
4.25262e-05
4.5598e-05
-7.08046e-05
-4.5384e-05
-1.7592e-05
6.0013e-05
3.70806e-05
4.36977e-05
-7.64488e-06
2.17558e-05
1.48427e-05
1.47815e-05
3.49523e-05
1.44985e-05
-7.17351e-05
5.90798e-05
3.93528e-05
-1.62125e-05
4.74529e-05
-1.8456e-05
-3.84231e-05
8.4609e-05
5.78982e-05
5.29938e-05
-2.82952e-05
-1.40264e-05
-3.38175e-06
6.56866e-05
1.70164e-05
1.81664e-05
-1.45179e-05
-3.22156e-05
8.30216e-06
5.70647e-05
3.72085e-05
6.89622e-05
3.92862e-05
3.07858e-05
-1.59348e-05
4.17507e-05
8.47271e-06
-3.21823e-05
-1.07553e-05
-1.45921e-05
5.3932e-05
1.21891e-05
2.11236e-05
-2.64754e-05
1.12987e-05
-2.39079e-05
-1.4451e-05
1.0998e-05
-7.73487e-06
4.69026e-06
1.6859e-05
6.67057e-05
1.57991e-05
-0.00010758
-8.24993e-05
6.52333e-06
-5.85074e-05
5.17324e-05
1.84862e-05
1.66773e-05
-7.07679e-05
5.68549e-06
-1.86227e-05
-4.33434e-05
5.83276e-05
-4.15356e-05
-7.76731e-05
-1.33208e-05
-3.74749e-05
-1.09931e-06
5.0631e-05
3.43447e-05
5.21399e-05
2.95319e-05
4.71438e-05
-2.02372e-05
0.000134812
5.51657e-05
-3.82706e-05
-1.12214e-05
0.000111732
1.12818e-06
-1.38342e-05
-2.07326e-05
-1.05338e-05
5.75103e-06
2.51087e-05
-6.47181e-05
1.22224e-06
0.00011825
2.02318e-05
-6.9679e-05
-8.34574e-05
9.06893e-05
4.29545e-05
-6.09935e-05
-2.33715e-06
4.52413e-06
-2.48617e-05
-7.4984e-05
-6.30098e-06
3.39795e-05
6.28869e-05
-2.65893e-06
-2.97541e-05
-6.67727e-05
-1.08314e-05
7.42334e-06
3.03185e-05
-1.26916e-05
1.26481e-05
-3.24742e-05
-1.54033e-05
4.65957e-05
-6.06757e-07
-7.3323e-05
-3.61169e-05
3.19345e-05
5.07124e-05
5.52051e-05
-3.86608e-05
-2.71021e-05
-1.73214e-06
4.00441e-05
-1.28825e-05
1.15236e-05
2.75385e-05
1.51008e-05
2.02362e-05
3.27823e-05
-0.000103584
-2.37206e-05
5.62993e-05
-3.56046e-05
-8.56416e-05
0.000101617
-2.90701e-05
2.15793e-05
-5.19507e-05
6.29353e-06
-5.95588e-05
3.80236e-06
-4.01158e-05
2.2179e-05
-9.73791e-06
6.35824e-05
-2.76128e-05
-2.54387e-05
9.0673e-05
-5.55888e-05
-3.51444e-05
1.47806e-05
-2.30939e-05
3.46847e-05
-4.10149e-05
-1.09317e-05
2.98403e-05
3.45644e-05
-4.78462e-05
-5.78739e-05
-3.72984e-05
3.5862e-05
-1.02364e-05
-1.76752e-05
3.83477e-05
4.55021e-06
-3.07262e-05
-6.31748e-05
6.19015e-06
-5.68884e-05
0.000120349
-0.000117729
-6.80869e-05
1.01868e-05
-1.02158e-05
2.82163e-05
-1.96018e-05
-6.25569e-06
3.5075e-05
9.93139e-06
-5.96482e-05
5.40572e-05
-2.97569e-05
-7.26082e-07
-9.39087e-06
-2.64802e-05
5.89007e-05
9.35846e-05
7.95011e-05
-1.68919e-05
-6.8293e-05
-7.77044e-05
4.75619e-05
-1.31771e-06
1.17444e-05
5.16305e-05
-6.31508e-05
2.21427e-05
3.45729e-05
-3.89622e-05
4.9273e-05
9.85339e-06
-2.73692e-05
-7.18011e-05
-2.20735e-06
9.4123e-06
5.68596e-05
-2.01401e-05
-8.62195e-06
7.09039e-06
9.57167e-07
-2.91981e-05
-3.67721e-05
9.87318e-07
-7.08341e-06
-7.77068e-05
4.07126e-05
2.2804e-05
-2.33529e-05
-2.82732e-05
6.35581e-06
-3.10612e-05
-2.37789e-05
5.87654e-05
3.77756e-05
-8.88545e-05
1.88741e-05
2.82152e-05
2.42067e-05
-1.97265e-05
3.13713e-05
2.67723e-05
-2.78917e-05
-1.14412e-05
4.39796e-05
-1.84721e-05
6.28969e-06
-9.41602e-06
3.67082e-05
-1.65391e-05
-2.21907e-05
-3.26345e-05
2.11542e-05
-9.05292e-05
-2.25268e-05
7.17794e-06
-1.67803e-05
-5.1295e-05
-4.15262e-05
3.02582e-05
1.87578e-05
1.34514e-05
6.79973e-05
0.000103677
-2.68694e-05
-5.62218e-05
-7.36862e-06
-8.72905e-06
-8.22102e-06
-0.000119192
3.07657e-05
9.97077e-05
7.93553e-05
2.35233e-05
2.89537e-06
3.23562e-05
6.61903e-06
-1.27411e-05
-1.12369e-05
3.50201e-06
6.08937e-05
-6.73451e-06
5.99329e-05
-9.10764e-06
-4.93438e-05
-1.25013e-05
-1.79207e-05
3.41783e-05
-3.37977e-05
7.39482e-06
5.9453e-05
0.000102923
1.5897e-05
2.07347e-06
6.60841e-05
-5.49526e-05
-6.42202e-05
4.83578e-06
5.86055e-05
-3.53619e-05
-0.000113618
-3.21863e-05
8.25233e-06
3.03725e-05
4.09456e-06
1.25878e-05
-2.57907e-05
4.02995e-06
-1.99423e-05
-0.000115459
-8.30356e-06
2.34315e-05
1.67681e-05
-9.89973e-06
-1.77942e-05
3.41058e-05
5.38381e-05
-8.89646e-07
-3.2686e-05
-1.44824e-05
1.08391e-05
2.86296e-05
1.41952e-05
-1.13221e-05
4.36334e-05
-9.69984e-06
4.36599e-05
-6.26e-06
-6.49597e-05
8.33399e-05
7.37375e-06
-2.33591e-05
-5.29966e-05
8.21939e-06
-7.67082e-05
-5.47341e-05
1.6998e-05
-2.35284e-05
6.93039e-05
-5.89245e-05
-1.58965e-05
-3.79689e-06
-4.3655e-05
1.75042e-06
6.90878e-06
-1.56346e-05
-1.26812e-05
-6.3139e-06
-2.87474e-05
6.35837e-05
-1.27369e-05
2.98875e-05
-1.94588e-05
0.00010666
-6.87317e-05
2.64228e-06
7.97829e-05
-7.28986e-05
-2.11628e-05
-1.82877e-06
-5.65476e-06
-3.07193e-05
-1.66823e-07
6.13098e-05
-4.53608e-05
-3.93682e-06
2.7423e-05
5.10006e-05
6.30133e-06
2.15231e-05
-5.9315e-05
-4.52383e-05
-4.56912e-05
-4.39744e-05
-2.38915e-05
-5.03426e-05
-2.24269e-05
-6.2891e-05
1.11947e-05
0.000117077
1.08852e-05
1.6035e-06
7.11577e-06
-1.2483e-05
-9.79607e-05
1.17276e-05
-2.43353e-05
-6.5287e-05
-4.57339e-05
9.77498e-05
-2.84507e-05
2.46854e-05
2.89712e-05
-3.39509e-05
9.19255e-05
-5.06385e-05
-3.13995e-05
4.17698e-07
2.26257e-05
5.23947e-05
-4.6351e-05
3.01981e-06
-7.25875e-05
3.62424e-05
4.53796e-05
5.10277e-05
4.9612e-05
1.14618e-05
6.3146e-06
1.38573e-05
1.41433e-06
1.3563e-05
-5.94303e-05
-5.26089e-05
-3.14452e-05
3.68985e-05
-1.13074e-06
4.39305e-06
1.65973e-05
1.01095e-05
-4.56735e-05
-5.67073e-05
-2.16055e-05
3.75358e-06
3.02102e-05
2.47173e-05
-3.70545e-05
-4.68162e-05
-8.03268e-05
-3.89204e-05
8.46453e-05
4.35197e-05
1.98979e-05
-8.17585e-06
-6.95768e-06
-5.38758e-05
3.5844e-05
-6.18505e-05
7.90434e-05
-1.5948e-05
-3.99174e-05
-6.2617e-05
3.51216e-05
5.15336e-05
1.97068e-06
-3.47057e-06
-9.94967e-06
5.45724e-05
-4.35947e-05
-3.20033e-05
3.58504e-05
-2.33697e-05
-7.19365e-06
3.16279e-05
-2.36784e-05
4.7908e-05
6.116e-05
-1.50189e-05
5.83357e-05
-1.60111e-05
-5.55501e-05
-4.11178e-05
3.92946e-05
8.73664e-05
-9.01858e-06
2.39068e-05
5.31226e-05
-2.11794e-06
3.75923e-05
-6.11141e-05
-5.37824e-05
4.75649e-05
-2.97428e-05
-7.41602e-05
-1.30142e-05
3.8296e-06
-4.95901e-05
-1.00627e-05
1.4806e-05
3.36731e-06
-4.77561e-05
-3.26619e-05
4.77978e-06
4.40958e-05
4.04309e-05
-4.65778e-05
-4.65792e-05
9.95444e-06
6.58096e-05
1.77752e-05
-1.76016e-05
-0.000102062
4.74707e-05
-2.01663e-05
-7.77538e-06
-8.7989e-06
4.50332e-05
-5.59189e-06
-5.70056e-05
-1.9311e-05
-3.39665e-05
4.75905e-05
2.16507e-05
-2.22092e-05
-2.47788e-05
-2.54151e-05
-5.89038e-06
-1.15659e-05
-4.1318e-05
-4.02358e-05
1.20583e-06
-4.48264e-05
2.04251e-05
3.38047e-06
-2.82915e-05
3.01643e-05
9.3485e-06
-6.713e-05
-4.0574e-05
7.0934e-05
-3.39552e-05
-2.67513e-05
2.17741e-05
1.56355e-05
1.44393e-05
-8.9017e-06
-1.1994e-05
1.44322e-05
8.70278e-05
-9.70205e-07
1.24228e-05
-5.59279e-05
-1.92776e-05
3.90805e-05
3.06941e-06
-4.055e-05
7.56653e-06
6.72847e-05
3.94991e-05
-7.47541e-05
-3.48641e-05
2.46887e-05
-5.16153e-05
3.76673e-06
-4.08549e-05
-1.83191e-05
8.32828e-05
-3.53502e-05
-3.56364e-05
-9.10205e-06
-2.37036e-05
-7.6158e-05
-4.31736e-05
-3.44523e-05
3.03324e-05
-5.93209e-05
-4.43429e-05
-1.38484e-05
2.80144e-05
4.43456e-05
7.11239e-06
-4.18397e-07
-3.37954e-05
5.63175e-05
4.62114e-05
-7.51622e-05
0.000106831
-4.85468e-05
-1.38166e-05
-8.41217e-07
-1.47608e-05
-6.57006e-05