# vtk DataFile Version 1.0
Net Charge Density
ASCII
DATASET STRUCTURED_POINTS
DIMENSIONS 256 128 1
ORIGIN 0 0 0
SPACING 0.15625 0.15625 1
POINT_DATA 32768
SCALARS rhonet float
LOOKUP_TABLE default
-3.89642e-06
-9.51273e-05
0.000144792
9.63219e-05
3.56846e-05
0.000120451
-0.000118445
9.18579e-05
0.000154216
2.28992e-05
-3.75606e-05
0.000108726
0.00010382
7.94453e-05
0.000109347
4.99606e-05
8.77434e-05
0.000140235
4.05877e-05
-6.79099e-05
-6.4068e-06
0.000141859
0.000144767
4.77822e-05
3.7268e-05
2.07424e-05
7.74218e-05
9.0589e-05
-1.35215e-05
-7.27426e-05
5.23025e-05
3.97232e-05
4.36689e-05
6.90082e-05
1.24417e-05
0.000171713
1.68076e-05
7.28725e-05
7.73576e-05
-5.53043e-06
2.29322e-05
6.83242e-06
0.000136404
9.39814e-05
2.09393e-05
1.86831e-05
-3.16133e-05
6.95547e-05
0.000116214
7.88724e-05
-1.20078e-05
2.49782e-05
8.34423e-05
0.000148995
3.5595e-05
1.75037e-05
0.000151011
-5.17472e-05
5.67851e-06
7.16953e-05
5.02794e-05
6.06016e-05
7.16792e-06
8.01798e-05
8.22491e-05
-8.03834e-05
4.41821e-05
0.000136175
4.09954e-05
4.82835e-05
7.92339e-05
3.67112e-05
-2.69157e-05
4.96679e-05
-1.14786e-07
5.11557e-05
4.20857e-05
-3.83081e-05
9.21621e-05
0.000106615
8.71844e-05
2.54082e-05
7.49615e-05
0.000101106
4.54683e-05
-4.48013e-06
-1.6691e-05
6.70491e-05
0.000119669
-2.34881e-05
9.00028e-05
-1.4795e-05
-3.90526e-05
-6.21472e-06
-8.99178e-05
5.22719e-05
0.000157961
2.4097e-05
9.16885e-05
-2.49445e-05
0.000157723
9.09187e-05
-3.16952e-06
9.47256e-05
3.90381e-05
0.000130971
-2.58326e-07
-6.85494e-05
2.66265e-06
7.4e-05
0.00013342
5.79278e-05
2.02983e-05
3.31157e-05
8.04213e-05
4.36592e-05
1.2266e-05
7.49689e-05
5.09599e-05
4.32276e-05
-3.98807e-05
-3.45631e-05
4.04444e-05
2.44894e-05
0.00011572
6.60877e-05
1.82553e-05
8.13091e-05
1.99641e-05
-1.88099e-05
0.000119796
9.26158e-05
-2.24402e-06
3.77487e-05
2.03245e-05
6.79679e-06
4.46094e-05
-3.19164e-05
4.68963e-05
-1.1503e-05
-4.98407e-05
2.32954e-05
2.09622e-05
0.000160761
9.88222e-05
2.06358e-06
0.000137836
1.15245e-05
-3.11239e-05
0.000132418
1.78273e-05
2.91318e-05
0.000108428
-8.34523e-06
3.45046e-05
4.32305e-05
5.74649e-06
3.4271e-05
-5.27664e-06
1.75427e-05
7.67781e-05
2.50085e-05
0.000112709
-2.20693e-05
3.2585e-05
2.5523e-05
5.84617e-05
-6.12724e-05
0.000105448
0.000137295
2.50292e-05
4.32236e-05
7.45822e-05
0.000111579
-2.02684e-05
-8.13347e-06
8.72933e-05
-8.23219e-05
1.15575e-05
3.31803e-05
8.8769e-05
-7.05997e-05
-3.1811e-05
5.65383e-06
1.0499e-05
7.98533e-05
4.142e-05
7.20927e-05
0.000102554
7.46853e-05
2.48839e-05
0.000198125
8.16119e-05
-6.56995e-05
6.24199e-05
0.000201229
4.75222e-05
8.32754e-05
7.86667e-05
-1.63089e-05
5.95987e-05
0.00014917
4.3901e-05
3.83352e-05
-1.00754e-05
6.97706e-05
-5.98882e-05
5.34235e-05
6.86803e-05
8.57902e-05
6.81024e-05
0.000137439
0.000106097
-2.40526e-05
0.000111081
-0.000131281
0.000102691
9.90945e-05
-5.28723e-05
-3.79215e-05
8.69741e-05
0.000114877
0.000176992
3.40517e-05
7.95296e-05
5.67444e-05
-3.69134e-05
-1.51402e-05
8.69039e-05
6.86072e-05
6.22787e-06
4.16548e-05
2.36379e-05
2.60699e-05
0.000121307
-3.55701e-05
-2.05771e-05
2.7501e-05
5.94512e-05
8.979e-06
1.84991e-05
8.66941e-05
-5.82668e-05
-3.07104e-07
2.65902e-05
-1.44093e-05
-2.21956e-05
-3.95462e-05
0.000128655
-4.29619e-06
2.10484e-05
-3.85131e-05
0.000102294
2.14381e-05
2.40527e-05
4.18613e-05
-0.0001049
2.47048e-05
-6.30282e-05
-2.51191e-05
-2.38868e-05
5.12255e-05
-2.60449e-05
-7.57636e-05
4.98929e-05
-6.60461e-05
-4.29e-05
2.33413e-05
-5.99084e-05
-8.02729e-05
3.00189e-06
-4.24266e-05
4.6622e-06
1.08911e-05
-2.15758e-05
-4.06022e-06
-5.82078e-05
-6.74946e-05
-0.000106138
-1.79203e-05
-2.0045e-05
-5.72716e-05
-2.52762e-05
7.73068e-06
-3.0741e-05
-8.53869e-05
-3.5389e-05
-8.36118e-06
2.74419e-05
-7.95682e-05
-6.67478e-05
2.31334e-05
-0.000103178
-3.37882e-05
1.98343e-05
-8.20332e-05
-5.15864e-05
-4.38419e-05
8.67248e-06
3.55993e-05
-2.47123e-05
4.87431e-06
-0.000112385
-3.15171e-05
3.88798e-05
-3.39411e-05
-6.56128e-05
-4.11931e-05
-3.17376e-05
2.98235e-05
-2.85316e-05
-3.54571e-05
-2.34868e-05
-0.00011611
1.48102e-05
-3.37933e-05
4.56311e-05
-5.12692e-05
-5.72854e-05
-3.73455e-05
-3.01473e-05
-6.05672e-05
-1.00291e-05
-7.96346e-05
-0.000109192
1.21044e-05
-4.39815e-05
9.0173e-06
-1.84359e-05
1.7242e-05
-5.13539e-05
-1.04336e-05
4.76099e-05
-2.54943e-05
5.74087e-05
2.16532e-07
-3.24124e-05
-5.04442e-05
-8.22556e-05
2.84831e-05
2.44665e-05
-6.16946e-05
-0.000158637
-4.16979e-05
-6.60075e-08
-1.69141e-05
8.77341e-06
5.33117e-05
3.15602e-06
-1.0794e-05
2.4714e-05
-5.96524e-06
3.43232e-05
-2.73113e-05
-6.84685e-06
-1.89501e-06
-4.36434e-05
-0.000106617
-3.96519e-05
-2.96775e-05
-3.556e-05
1.6422e-05
-5.9125e-05
-4.27185e-05
-1.0673e-06
-5.99923e-06
5.43522e-05
-3.5424e-05
-7.13801e-05
-7.13194e-05
4.01702e-05
1.15474e-05
-5.23521e-05
-1.11546e-05
9.64501e-06
3.18993e-05
-8.57749e-05
1.39618e-05
-6.13793e-05
-7.74174e-06
-3.48632e-05
-1.67098e-05
-4.55659e-05
-6.96026e-05
1.7025e-05
-4.88108e-05
-2.07967e-05
1.59815e-05
-1.05535e-05
-2.35448e-05
-1.2441e-05
-3.31047e-05
-4.60123e-05
-1.33584e-05
-4.22456e-05
-8.323e-06
-5.94474e-05
-7.82579e-05
8.69692e-06
-2.01981e-06
-8.3825e-05
1.05491e-05
-3.22353e-05
-4.36764e-05
-0.000117681
-8.72556e-06
-3.99582e-05
-3.8308e-05
-7.16745e-05
9.37097e-06
3.00054e-05
-1.7041e-05
-2.39994e-05
-1.85566e-06
-5.11226e-05
-2.02563e-05
-8.13492e-05
-6.40947e-05
3.62425e-05
-8.02709e-05
-7.56315e-06
2.37455e-05
2.21169e-05
-5.27813e-05
-2.42528e-06
3.60706e-05
-9.46561e-05
1.02371e-05
-2.2148e-05
3.97034e-05
-4.13513e-05
-2.55482e-05
-5.70028e-06
3.04058e-05
-6.907e-05
-4.77678e-05
3.67507e-05
-4.79631e-06
2.05846e-06
-4.8656e-05
-0.000107547
-6.60246e-05
-2.66001e-05
-2.24796e-05
-9.32999e-06
-1.88574e-05
-0.000101449
6.32287e-06
3.69595e-05
4.6104e-06
-1.0849e-05
-2.36548e-05
-8.50842e-05
-3.90909e-05
4.81101e-05
-6.97759e-06
-7.51885e-05
-6.4628e-05
-4.37897e-05
3.07559e-05
-5.53509e-05
1.83075e-06
-5.12167e-05
9.7167e-05
1.17975e-05
-4.14064e-05
-5.2241e-05
-4.83999e-05
-4.73997e-05
3.21256e-05
-3.50832e-05
-7.29871e-05
1.69803e-06
-2.53876e-05
-1.98883e-05
4.50586e-06
-1.73199e-05
7.05675e-05
5.70893e-05
-6.70664e-05
-3.48983e-05
-2.73385e-05
-7.02047e-05
-2.06066e-05
2.42676e-05
8.58861e-05
-8.70343e-05
6.93463e-06
-4.34535e-05
-3.62698e-05
6.9032e-05
3.75882e-05
-6.27581e-05
-4.99131e-06
2.55416e-05
-5.11215e-05
2.26249e-05
-1.34826e-05
-4.8021e-05
-1.98237e-05
3.05509e-06
3.73246e-05
3.42679e-05
-1.23484e-05
-2.31677e-05
-0.000132199
-1.6694e-07
-7.60646e-06
5.1258e-05
-7.35314e-06
-7.3632e-05
5.01669e-06
-3.30424e-05
-1.99128e-06
5.00254e-05
-7.79761e-06
-2.33897e-05
-8.48016e-06
1.05391e-06
-1.92291e-05
7.13235e-05
-5.15231e-05
7.82299e-06
3.11629e-05
6.53439e-05
-4.67902e-05
-2.90641e-05
-1.14905e-05
-2.49572e-05
-9.34284e-05
-2.04819e-05
3.51591e-05
4.88632e-05
3.64076e-05
-1.64526e-05
3.77698e-05
6.14582e-05
-4.75247e-05
4.48449e-05
4.40083e-05
9.82301e-06
-5.10864e-05
1.23074e-05
2.34442e-05
7.04301e-05
4.96681e-05
-3.57148e-05
2.25289e-05
5.27373e-06
-2.51165e-05
4.8009e-05
3.40394e-05
2.1163e-05
-2.89199e-05
-7.34262e-05
2.16753e-05
3.48729e-05
1.4212e-06
-4.63354e-05
1.81748e-06
-1.6571e-05
5.22442e-05
1.92709e-05
-4.25106e-05
-9.05943e-05
6.8841e-06
2.94283e-05
9.43267e-06
3.9076e-05
-4.0176e-05
2.79769e-05
-3.307e-05
9.02752e-05
1.87056e-05
2.1936e-05
-2.38945e-05
3.89217e-05
7.95068e-05
-1.43005e-06
-1.07866e-05
-4.31228e-05
-5.63426e-05
3.6556e-05
5.69143e-06
-2.9766e-05
3.18505e-05
-3.75104e-05
-1.97686e-05
6.36957e-05
5.06416e-05
-4.80588e-05
-4.18768e-05
-9.31229e-06
-2.63562e-05
-1.33659e-05
5.09446e-05
7.4107e-05
-1.38805e-05
-5.52132e-05
-6.02389e-05
2.25466e-05
4.0165e-05
-3.56473e-05
4.6086e-05
6.0403e-05
1.00419e-05
-2.72853e-05
-6.84022e-05
1.03845e-05
-3.90668e-05
-6.67316e-05
1.89327e-05
-3.86651e-05
-7.26087e-05
1.55343e-05
3.4466e-05
-9.18168e-06
-2.52384e-05
3.49989e-05
6.71942e-05
-7.81461e-06
-2.34848e-05
1.90872e-05
-3.45565e-05
-3.24706e-06
3.17621e-05
-4.33621e-05
-4.44569e-05
-1.29164e-05
6.19069e-05
-1.54721e-05
-1.92425e-05
-9.33767e-07
1.07803e-05
-2.67865e-05
6.43284e-05
6.28643e-07
3.16113e-05
-3.45439e-05
-2.02107e-05
3.29809e-05
-8.92952e-06
-5.33778e-05
-6.5838e-05
-1.97737e-05
2.38337e-06
3.65475e-05
8.36793e-06
-1.87813e-06
1.48289e-05
-2.75734e-05
4.24774e-05
2.79525e-05
9.69106e-05
6.65828e-05
1.94266e-05
1.45668e-05
-1.36635e-05
5.90176e-05
5.77695e-05
-3.53307e-05
8.65563e-05
-1.88483e-05
-2.10219e-05
-5.39365e-05
1.12342e-05
-1.2299e-05
7.03163e-05
-1.07868e-05
6.14906e-06
5.77931e-05
3.47513e-05
-3.56393e-05
-5.85592e-06
4.3827e-05
2.99958e-05
1.4888e-05
3.0942e-06
-6.29971e-05
1.44138e-05
-9.34462e-05
4.10881e-05
-3.34162e-05
-7.29718e-05
6.78631e-06
-4.31378e-05
3.26064e-05
-5.40692e-05
-3.5189e-05
-7.38096e-06
-3.46785e-05
7.78108e-06
5.28588e-05
1.66988e-05
-1.61503e-06
7.61891e-05
-2.89595e-06
5.279e-05
3.30987e-05
2.69054e-05
3.20114e-05
-4.14012e-05
-7.91213e-05
6.70389e-06
-3.71062e-05
3.38419e-07
3.12877e-05
2.55896e-05
4.62431e-05
-7.34441e-06
3.85576e-05
-1.82481e-05
8.60397e-05
-3.51763e-05
-2.42107e-05
-2.44786e-05
3.96876e-05
3.96364e-05
-5.59597e-06
-1.59817e-05
5.26491e-05
-3.12823e-05
-9.51323e-06
1.32091e-05
3.0308e-05
4.0144e-05
-6.21303e-05
6.55768e-06
-4.02801e-05
7.68165e-05
-2.3057e-05
2.42726e-06
-2.36237e-05
-7.65687e-06
1.05635e-06
-7.5846e-05
1.89049e-05
4.24923e-05
2.73308e-06
-4.68805e-05
-0.000111356
2.32974e-05
1.92826e-05
1.66928e-06
4.11415e-05
-1.26259e-05
3.11411e-06
-2.15395e-05
-7.41896e-05
3.57798e-05
1.81659e-05
-4.43211e-05
1.38062e-05
2.4942e-05
-1.40066e-05
-5.45266e-05
-1.59669e-05
4.8483e-05
-4.49957e-06
-0.000139602
5.79737e-05
3.08061e-05
0.000100899
-3.72755e-05
3.82719e-05
1.96728e-05
-2.19462e-05
-3.16998e-05
-3.15023e-05
5.79796e-05
8.84753e-05
-9.06712e-06
-5.99885e-05
9.21858e-06
8.46398e-06
-1.87429e-08
-2.07848e-05
-3.90378e-05
0.000130275
-3.43212e-05
-4.7052e-05
5.37112e-05
-2.7963e-06
2.82272e-06
-3.79193e-05
-6.0541e-05
4.75422e-05
4.84355e-05
-1.75372e-05
3.74631e-05
-5.19103e-05
4.18175e-05
3.39496e-05
-6.99726e-05
2.73657e-05
3.8806e-05
1.67808e-05
-5.26787e-05
6.28686e-05
-2.19624e-05
-4.31008e-05
-7.40332e-06
-2.6679e-05
4.25467e-05
3.65009e-06
2.75729e-05
-4.73876e-05
-6.43707e-06
3.03095e-05
-2.263e-05
-8.19337e-05
-4.9582e-05
1.36235e-05
3.36366e-05
4.53523e-05
-3.78168e-05
6.72047e-05
-2.02061e-05
-6.23035e-05
4.74699e-05
4.62761e-05
1.24054e-05
3.82882e-05
2.15032e-05
5.87144e-05
-6.50004e-05
-4.25666e-05
-1.34121e-05
4.39063e-05
4.78702e-05
-2.23207e-05
-6.05177e-05
1.98314e-06
-2.43739e-06
-3.00116e-05
1.48918e-05
2.92045e-05
7.28865e-05
7.06635e-05
-3.58255e-05
-0.000140627
2.58457e-05
1.20327e-06
-2.88258e-05
-4.69702e-05
5.72428e-05
3.12586e-05
1.75566e-05
-0.000107817
-1.58469e-05
1.13326e-05
3.99519e-05
3.2814e-05
-4.30103e-05
3.20366e-05
3.74886e-05
-3.91933e-05
2.83314e-05
3.71942e-05
-1.37145e-05
3.56364e-05
-5.44165e-05
8.30449e-05
3.03246e-05
-1.9427e-05
-2.67292e-05
6.84275e-05
4.12181e-05
-2.91595e-05
3.35345e-05
3.92135e-05
3.68371e-05
-3.48372e-05
-2.81518e-05
1.41672e-05
3.52946e-05
-7.15667e-05
-2.16161e-05
4.60055e-05
3.64992e-05
2.31861e-05
-3.12355e-05
-7.13486e-05
2.25477e-05
-3.52726e-05
7.69855e-05
-4.16439e-05
-1.3786e-05
7.45141e-05
-5.40668e-05
4.00387e-06
-1.77847e-05
-5.58054e-05
2.01231e-05
5.95988e-06
5.05813e-05
6.31161e-05
-6.58256e-05
8.14185e-05
-4.32236e-05
-2.44335e-05
2.67203e-05
4.39421e-06
9.56794e-06
7.65512e-06
4.39119e-06
-4.22159e-05
2.17032e-05
1.01278e-05
-1.56359e-05
-7.88145e-05
-2.79717e-05
-7.3316e-06
2.62831e-05
6.22857e-06
2.38398e-05
-8.04092e-06
5.26162e-05
3.00963e-05
-3.07958e-05
-8.6859e-05
1.14744e-05
3.87331e-05
1.11606e-05
-2.85619e-05
-9.12475e-06
-2.48163e-06
2.21182e-05
-3.22994e-06
2.53447e-05
2.25464e-05
3.20962e-05
-2.08741e-05
-3.06277e-06
6.05546e-06
-3.41388e-06
3.49665e-05
-2.44873e-05
5.34734e-05
1.96629e-05
1.27887e-05
-1.15689e-05
2.92528e-05
2.87092e-06
3.39592e-05
-1.87164e-05
-2.8864e-06
-6.90417e-05
2.46684e-05
-5.03915e-06
-1.26839e-05
2.05981e-05
-2.63399e-05
-2.66172e-06
-3.02475e-05
-7.3893e-05
-1.16546e-05
0.000124286
-9.67182e-05
2.30568e-05
4.0888e-05
1.12086e-05
1.89699e-05
2.29748e-05
-6.50403e-05
-1.8556e-05
-3.5894e-05
9.88832e-06
-2.25084e-05
-0.000114619
5.06438e-05
-0.000120174
-5.21552e-05
0.000129995
-2.85542e-05
-3.29316e-05
1.39812e-05
-3.08827e-06
-4.58432e-06
-6.87173e-05
5.01052e-07
2.54064e-05
-3.06813e-05
-4.83694e-05
-2.09836e-05
3.77458e-05
3.99081e-05
1.09902e-05
-3.37759e-05
2.43064e-05
4.91923e-05
4.58607e-05
-7.13926e-05
-6.57423e-05
-4.48681e-05
5.14658e-05
2.45101e-06
-1.54704e-06
-6.96708e-05
3.4261e-07
-1.04238e-05
6.89458e-06
-2.29041e-05
-2.35555e-06
-3.06217e-05
3.27418e-05
-3.2268e-06
-1.03376e-05
-2.52562e-05
2.84621e-05
9.52228e-05
-3.02619e-05
3.21718e-05
4.43811e-05
-4.54093e-05
-0.000101102
-3.30776e-05
0.00011101
6.25442e-05
-5.28279e-05
-0.000107186
-1.18128e-05
6.85672e-05
3.46118e-05
-5.40466e-05
-5.21382e-05
4.75174e-05
-4.06366e-05
-0.000119436
6.1204e-05
-1.81566e-05
-3.11725e-05
0.000105493
-4.54735e-05
-9.29439e-05
-5.38457e-05
9.50589e-06
-5.54989e-05
1.67228e-05
4.28164e-06
-7.23697e-05
6.52403e-06
4.5925e-05
6.77723e-06
-2.0673e-06
5.32219e-05
2.83385e-05
-3.7598e-05
-4.85516e-05
0.000104193
-1.6281e-05
-5.72752e-06
-2.96999e-05
-2.67255e-06
-4.58121e-05
8.22777e-06
-1.31112e-05
-4.38887e-05
-3.36712e-05
-5.49546e-05
4.80606e-05
-3.43904e-05
5.50932e-05
-3.26773e-05
-2.4994e-05
-9.60915e-06
3.26966e-05
-4.3438e-05
8.21741e-05
3.99014e-06
1.01079e-05
-2.64163e-05
-1.68546e-06
5.18316e-05
-5.05229e-05
7.65341e-05
-2.69973e-05
-2.84479e-05
5.25312e-06
1.91292e-05
5.75274e-05
-1.55075e-05
1.41474e-05
1.54795e-05
9.67543e-05
-2.60593e-05
2.79746e-06
-6.86488e-05
-4.36453e-06
5.35557e-06
-6.23055e-07
-1.12274e-05
2.76116e-05
-7.06456e-05
2.38867e-05
3.64636e-05
-5.86116e-06
-1.47324e-05
5.85362e-05
-1.46381e-06
5.05592e-07
-8.36386e-06
-6.68822e-05
-7.45885e-06
-5.66771e-05
5.49144e-05
-1.55682e-05
-6.51171e-05
1.93972e-05
-2.5009e-05
1.49548e-05
4.44497e-05
-8.87853e-06
-5.64915e-05
-7.07043e-05
-8.34174e-06
-2.96303e-05
-2.15287e-06
-1.83212e-05
-1.89291e-06
-0.000102778
8.7478e-06
3.24822e-05
3.07962e-05
-0.000103662
-3.61556e-05
2.02425e-05
8.3911e-05
4.753e-06
-1.31455e-05
3.19695e-05
7.14674e-07
-3.7137e-05
-7.51377e-05
-6.92117e-05
-2.21282e-06
-7.09705e-05
1.36718e-06
-4.3752e-05
5.21007e-05
-3.20332e-05
-2.11226e-05
9.38214e-06
-1.06066e-06
4.85114e-06
-2.59293e-05
5.72975e-05
-2.0384e-05
4.02207e-05
1.71231e-05
-4.36113e-05
4.79107e-06
-4.09898e-05
-3.49013e-07
2.30944e-05
-3.31621e-05
1.34483e-05
1.23589e-05
-2.61038e-05
-4.63811e-05
1.17683e-05
-4.40204e-05
0.000100773
4.16173e-05
5.95754e-05
5.7274e-06
3.63542e-06
3.72168e-05
-2.83866e-05
-2.65326e-05
-3.87032e-05
-3.3244e-05
-2.94461e-06
-4.83473e-06
-7.42383e-05
-9.21183e-05
-4.12924e-05
9.3604e-05
1.79687e-05
2.46144e-05
5.07899e-05
-3.90918e-05
-4.86934e-05
-6.07772e-05
2.91874e-05
-7.01525e-05
2.39778e-05
5.71006e-05
1.43808e-05
-8.54449e-05
6.4892e-05
5.64149e-06
1.15009e-05
-0.000120717
5.3374e-05
7.36074e-05
5.39108e-06
1.38734e-05
1.18414e-05
-9.6513e-06
3.66954e-05
-3.03433e-05
4.71816e-05
6.17246e-05
-4.68153e-06
-4.04324e-05
-2.984e-05
4.83368e-06
-1.19221e-06
4.36949e-05
-1.84914e-06
-1.13774e-05
-1.70612e-05
7.8248e-05
-4.5842e-06
1.79142e-05
-3.62857e-05
-7.78632e-05
7.38347e-05
-9.19312e-05
-5.20796e-06
2.09284e-05
2.30595e-06
7.05894e-05
3.83814e-05
7.42148e-06
5.50146e-05
-1.01444e-05
4.60944e-05
-1.68375e-05
-5.8875e-05
-4.91891e-05
5.14215e-05
5.45885e-05
-1.9853e-05
5.8101e-05
3.02009e-05
1.38805e-05
2.24962e-05
6.25562e-05
6.90203e-06
-8.80084e-05
-1.34251e-05
-5.00761e-06
4.87e-05
5.9925e-05
6.30917e-05
1.42702e-06
2.14427e-05
-2.66385e-05
-9.90462e-06
-6.22044e-05
-1.60282e-05
3.25947e-05
-3.85358e-05
-1.90417e-05
5.31543e-05
-2.28165e-05
1.54101e-05
-4.23559e-05
-5.64614e-07
-5.11485e-05
-1.07911e-05
-0.000114607
2.06346e-05
1.91701e-05
7.28538e-05
2.73276e-05
-4.94906e-05
5.05785e-05
5.27869e-05
6.41997e-05
-7.98993e-06
4.43973e-05
-4.86512e-05
-2.58872e-05
-3.12885e-05
9.7664e-05
-4.46026e-05
-4.87096e-05
2.70449e-05
-5.0458e-05
1.36547e-05
-9.01836e-05
-0.000131356
6.04796e-05
5.67492e-05
-1.70094e-05
2.47729e-05
-9.10822e-06
5.16702e-05
-8.06584e-05
3.82913e-05
3.78342e-05
1.59069e-05
-7.97596e-06
-6.65546e-06
3.57418e-05
3.13771e-05
-9.32622e-05
-4.72958e-05
-9.38072e-05
-4.97689e-05
6.84744e-05
-3.54393e-05
9.14512e-06
-3.66229e-05
3.8721e-05
1.69347e-05
4.47605e-05
-5.40497e-05
2.94941e-05
6.61321e-05
1.22412e-05
-6.64287e-05
1.13342e-06
1.48162e-05
-1.36936e-05
6.08945e-05
-9.09204e-07
7.89308e-05
9.09646e-06
5.26162e-05
-9.66372e-05
3.41132e-05
6.60541e-06
-1.27822e-05
-4.43454e-05
-2.06702e-05
3.14997e-06
-9.30391e-07
-6.3061e-05
-0.000100799
-4.15873e-05
-9.1508e-05
-4.81865e-05
5.62917e-05
-1.52456e-05
-5.22906e-05
-2.41201e-05
-1.08294e-05
-4.57688e-05
-4.23098e-05
1.1905e-05
2.83609e-05
-1.41362e-05
-5.28244e-05
-6.13476e-05
1.77321e-05
1.07327e-05
-2.08275e-05
5.9631e-05
1.79047e-06
2.51202e-05
-2.36355e-05
5.88677e-05
3.1895e-05
4.76103e-05
-7.31894e-05
7.22464e-05
-0.000100922
-6.24103e-06
6.49312e-05
8.48947e-06
3.23068e-05
-3.30701e-06
-4.32197e-05
2.37848e-06
1.99964e-05
-1.27291e-05
9.59355e-06
3.61394e-05
2.75429e-05
6.92137e-05
-2.72412e-06
-6.32236e-05
-6.1458e-06
-7.611e-06
-1.02114e-05
4.45035e-05
5.20132e-06
2.67313e-05
-6.62997e-06
-4.79852e-06
-2.94802e-05
1.43549e-05
5.68922e-06
6.79197e-05
9.01218e-06
3.43907e-05
1.84247e-05
1.29036e-05
-4.46521e-05
3.45935e-05
3.36549e-05
1.93843e-06
-1.88092e-05
4.46875e-05
-5.23897e-05
6.75367e-05
7.7465e-05
6.37223e-06
8.13847e-05
-3.18107e-05
2.20664e-05
-1.73565e-05
-2.87807e-05
-6.86574e-05
1.19236e-05
2.47911e-05
1.23705e-05
-3.48676e-05
2.16777e-05
-2.20754e-05
-3.52529e-06
1.23351e-05
1.70933e-06
2.9713e-05
-6.88559e-05
-1.33734e-05
9.18958e-05
-3.43511e-05
1.47286e-05
-1.23635e-05
4.94568e-05
2.42064e-05
-4.44683e-05
5.05936e-05
0.000106778
9.66931e-05
6.52504e-05
8.89762e-07
-7.20681e-06
-1.14568e-05
6.66899e-05
-5.44824e-06
4.01792e-05
-2.33982e-05
4.17558e-05
-3.41268e-05
-2.13975e-05
6.28096e-06
-2.62642e-05
3.58209e-05
-8.93143e-05
4.69466e-05
-3.5755e-05
3.30246e-05
2.34637e-05
-9.97117e-05
2.21338e-05
3.57018e-05
-1.87464e-05
2.13264e-05
-6.78235e-05
2.71619e-05
-5.16977e-05
5.68143e-05
4.88434e-05
-1.7481e-05
3.80409e-05
4.5417e-05
1.17876e-05
-8.37992e-06
2.07494e-05
-2.0564e-05
5.28255e-05
-7.57065e-05
-4.2627e-05
-7.6727e-06
2.04986e-05
-1.54355e-05
-3.12327e-05
1.17397e-05
6.21653e-05
4.88086e-05
4.33612e-06
-0.00012757
-5.02244e-05
-6.86675e-05
-6.60998e-05
3.09134e-05
7.6151e-05
-7.01359e-05
-7.03032e-06
9.2854e-06
4.82404e-05
3.83984e-06
8.47317e-06
-6.75764e-05
-1.85834e-05
1.21734e-05
-8.66828e-06
-3.19523e-05
-1.4283e-05
3.18419e-06
7.33056e-06
1.82407e-05
2.56517e-05
-6.7884e-05
-4.71435e-06
3.4929e-05
-5.05325e-05
1.07944e-05
-1.50148e-05
-1.63051e-05
-2.95395e-05
9.53884e-05
2.63902e-05
-1.76691e-05
-2.1502e-05
-1.27996e-05
8.03266e-06
-1.35811e-05
2.63904e-05
-7.18492e-06
-1.9085e-05
2.17275e-05
5.39325e-05
-9.03434e-05
5.79039e-05
-1.44773e-05
-1.46057e-05
-3.83226e-05
-4.5439e-05
2.61621e-05
5.74819e-05
2.07163e-05
1.80587e-05
2.61939e-05
-7.22194e-06
-2.65964e-05
2.38705e-05
-3.81795e-05
-3.2999e-05
2.8661e-05
4.19584e-06
5.34137e-05
-1.2902e-05
-4.54625e-06
9.10495e-05
1.63321e-05
1.69141e-05
-4.63272e-05
3.55744e-05
-3.91717e-05
2.29459e-05
1.72227e-05
3.0864e-06
6.80585e-05
6.72811e-05
-1.70233e-05
-7.54709e-06
4.55858e-05
-1.23873e-05
-6.61262e-06
0.000122597
3.2628e-05
1.82132e-05
2.49493e-05
-5.22538e-05
-2.22394e-05
-5.70166e-05
1.30432e-06
7.69051e-06
2.41781e-05
1.07717e-05
-5.20684e-05
1.76704e-05
6.44929e-05
-6.11885e-05
5.44072e-05
-4.49324e-05
-7.05204e-05
6.23078e-06
3.2792e-05
4.70872e-05
1.32667e-06
1.32954e-05
-7.78602e-05
-2.8183e-05
-6.89272e-06
0.000112601
3.68477e-05
-3.34257e-05
4.85627e-05
3.18345e-05
1.14889e-05
6.94898e-05
0.000133271
-7.38588e-05
-4.20366e-05
-1.68968e-05
2.04106e-05
8.13243e-06
-1.95544e-05
3.47551e-05
5.05912e-05
-6.30395e-05
-4.2269e-05
1.79623e-05
5.70344e-05
-6.66361e-07
2.83982e-05
-3.47799e-05
-8.23165e-05
-3.16931e-05
-5.51024e-05
-1.69483e-05
6.43993e-05
-5.57775e-05
5.25212e-05
-0.00011234
-7.10649e-05
-1.52234e-05
-1.60271e-05
-3.59302e-05
5.28325e-05
4.40272e-05
-4.7544e-06
-6.05783e-05
-2.0325e-05
1.72128e-05
2.40905e-05
-2.15006e-05
-3.80275e-05
1.84211e-05
-5.2297e-05
-1.48044e-05
-9.0426e-05
-1.86136e-05
-1.40987e-05
0.000121308
-2.547e-05
5.25209e-05
3.7947e-05
3.11936e-05
-3.85306e-05
-5.10272e-06
-4.49661e-05
2.62952e-05
1.12428e-05
-1.86053e-05
1.74432e-05
-3.76217e-05
8.71066e-06
-3.17952e-05
7.1465e-05
-7.47021e-05
0.000101809
5.19642e-05
3.18051e-05
1.94152e-05
4.63653e-05
-3.0048e-06
1.62397e-05
7.99994e-05
3.67616e-06
-1.37989e-05
-5.2109e-05
-5.62188e-05
2.68223e-05
-3.78023e-05
-4.78232e-05
2.88627e-05
-2.68994e-05
-1.16545e-05
-5.02805e-05
3.10764e-05
-2.00599e-05
3.81089e-05
-8.71739e-05
-4.69049e-05
1.67185e-05
4.92438e-05
9.12813e-06
1.42585e-06
-6.6942e-05
-7.27302e-05
-1.43618e-05
-9.74443e-06
-1.5698e-05
2.67376e-05
-9.21225e-05
-5.88649e-05
-1.25873e-05
5.10606e-05
-8.97488e-05
7.86019e-05
1.30897e-05
1.51682e-05
-0.000114672
-4.19709e-05
1.06477e-05
8.84163e-05
-6.75314e-06
-6.93067e-06
1.0808e-05
-9.15197e-05
-1.49586e-05
1.07784e-05
5.18087e-05
-3.28285e-05
4.25938e-05
9.43081e-06
7.85803e-07
4.03607e-05
-3.83426e-06
2.66726e-05
-2.21874e-05
6.11763e-07
2.16393e-06
1.83085e-05
-2.01638e-05
-7.52348e-05
-8.20155e-05
-4.08833e-05
3.06881e-05
3.11449e-05
-1.76033e-05
-1.14897e-05
3.87504e-05
9.27423e-06
1.17533e-05
-4.4487e-05
-5.27485e-05
-4.2652e-05
9.6072e-05
-3.91065e-05
-6.17561e-05
-4.51247e-05
4.72018e-06
-4.15778e-05
-1.74774e-06
2.57664e-05
4.81143e-05
-3.50769e-05
2.8915e-05
3.42636e-05
2.19487e-05
-2.03149e-05
-2.84291e-05
2.95846e-05
6.2325e-05
1.81489e-05
-1.77097e-05
-4.22897e-05
-3.51784e-06
6.32218e-05
3.54624e-06
7.63207e-06
-5.29422e-06
1.01695e-05
2.74982e-05
2.91364e-05
-2.60756e-05
-5.97398e-05
8.67877e-05
3.29316e-05
-1.45729e-05
-1.42371e-05
5.72898e-05
3.84287e-06
9.8189e-05
0.000121367
-2.85937e-05
2.49979e-05
7.872e-06
-1.86713e-05
-1.70151e-05
-7.32372e-05
0.00011208
-1.25971e-05
-6.01787e-05
7.86281e-06
3.08843e-05
9.78424e-06
7.84104e-06
1.71367e-05
4.81959e-08
-2.67222e-05
-2.56806e-05
-4.13372e-05
-4.55836e-05
-1.76234e-05
-7.76607e-06
-4.82695e-05
7.13977e-05
1.64241e-05
3.01739e-05
-3.19597e-05
1.3984e-05
-1.39402e-05
-1.55894e-05
4.47617e-06
-1.65859e-05
8.27657e-05
5.56016e-05
5.67222e-06
3.54119e-05
2.86184e-06
-1.63057e-05
2.075e-05
9.63255e-06
-1.4501e-05
-4.8888e-05
-4.07479e-05
-9.69204e-06
4.12577e-05
-2.15803e-05
-3.41528e-05
5.64973e-05
-1.37317e-05
-5.04197e-05
3.84741e-05
-2.33622e-05
-1.1957e-06
-5.94469e-05
5.95255e-06
6.40079e-05
-7.39726e-05
-2.23712e-05
-4.28851e-06
-7.43164e-05
-1.58099e-05
5.60065e-05
-2.41018e-05
5.20141e-05
4.58723e-05
-3.16433e-05
0.000122277
2.89963e-05
1.20702e-05
-2.74093e-05
-3.44679e-05
-3.20203e-05
5.98459e-05
4.27903e-05
-2.5427e-05
-1.62858e-05
4.25263e-05
4.55979e-05
-7.08048e-05
-4.53839e-05
-1.75918e-05
6.00133e-05
3.70808e-05
4.36981e-05
-7.64476e-06
2.17558e-05
1.48427e-05
1.47814e-05
3.49525e-05
1.44985e-05
-7.17352e-05
5.90796e-05
3.93528e-05
-1.62125e-05
4.74526e-05
-1.84559e-05
-3.84229e-05
8.46088e-05
5.78985e-05
5.29937e-05
-2.82949e-05
-1.40264e-05
-3.38187e-06
6.56866e-05
1.70164e-05
1.81664e-05
-1.45179e-05
-3.22158e-05
8.30193e-06
5.70647e-05
3.72087e-05
6.89625e-05
3.92864e-05
3.07858e-05
-1.59347e-05
4.17507e-05
8.47271e-06
-3.21824e-05
-1.07554e-05
-1.45923e-05
5.39321e-05
1.21894e-05
2.11236e-05
-2.64748e-05
1.12986e-05
-2.39079e-05
-1.44509e-05
1.09978e-05
-7.73498e-06
4.69002e-06
1.6859e-05
6.67057e-05
1.57992e-05
-0.000107579
-8.24992e-05
6.52333e-06
-5.85072e-05
5.17322e-05
1.84865e-05
1.66772e-05
-7.07682e-05
5.68538e-06
-1.86227e-05
-4.33433e-05
5.83276e-05
-4.15358e-05
-7.76732e-05
-1.33206e-05
-3.7475e-05
-1.09931e-06
5.06311e-05
3.43448e-05
5.21399e-05
2.95317e-05
4.71438e-05
-2.02372e-05
0.000134812
5.51657e-05
-3.82705e-05
-1.12216e-05
0.000111732
1.12783e-06
-1.38341e-05
-2.07328e-05
-1.05337e-05
5.75162e-06
2.51086e-05
-6.47182e-05
1.22248e-06
0.00011825
2.02321e-05
-6.96791e-05
-8.34576e-05
9.06892e-05
4.29543e-05
-6.09935e-05
-2.33715e-06
4.52425e-06
-2.48614e-05
-7.4984e-05
-6.3011e-06
3.39795e-05
6.2887e-05
-2.65893e-06
-2.97544e-05
-6.67727e-05
-1.08314e-05
7.42334e-06
3.03184e-05
-1.26914e-05
1.26482e-05
-3.24743e-05
-1.54031e-05
4.65959e-05
-6.06757e-07
-7.33233e-05
-3.61173e-05
3.19347e-05
5.07121e-05
5.52052e-05
-3.86609e-05
-2.71022e-05
-1.73238e-06
4.00438e-05
-1.28824e-05
1.15237e-05
2.75385e-05
1.51006e-05
2.02364e-05
3.27823e-05
-0.000103584
-2.37207e-05
5.62994e-05
-3.56047e-05
-8.56416e-05
0.000101618
-2.90702e-05
2.15792e-05
-5.19507e-05
6.29353e-06
-5.95587e-05
3.80224e-06
-4.0116e-05
2.2179e-05
-9.73779e-06
6.35827e-05
-2.76126e-05
-2.54388e-05
9.06731e-05
-5.55889e-05
-3.51444e-05
1.47804e-05
-2.30939e-05
3.4685e-05
-4.10147e-05
-1.09314e-05
2.98405e-05
3.45644e-05
-4.78459e-05
-5.78744e-05
-3.72985e-05
3.58619e-05
-1.02364e-05
-1.76753e-05
3.83476e-05
4.55044e-06
-3.0726e-05
-6.31749e-05
6.19015e-06
-5.68883e-05
0.000120349
-0.000117729
-6.80868e-05
1.01868e-05
-1.02158e-05
2.82162e-05
-1.9602e-05
-6.25581e-06
3.50751e-05
9.93151e-06
-5.96482e-05
5.40573e-05
-2.97569e-05
-7.2585e-07
-9.39076e-06
-2.64804e-05
5.89007e-05
9.35846e-05
7.95011e-05
-1.6892e-05
-6.8293e-05
-7.77042e-05
4.75619e-05
-1.31782e-06
1.17444e-05
5.16303e-05
-6.31507e-05
2.21429e-05
3.45729e-05
-3.89621e-05
4.92729e-05
9.85351e-06
-2.73691e-05
-7.18009e-05
-2.20747e-06
9.41206e-06
5.68596e-05
-2.01401e-05
-8.62195e-06
7.09039e-06
9.574e-07
-2.91979e-05
-3.67723e-05
9.87202e-07
-7.08329e-06
-7.77069e-05
4.07124e-05
2.28039e-05
-2.33529e-05
-2.82733e-05
6.35581e-06
-3.10615e-05
-2.37788e-05
5.87656e-05
3.77756e-05
-8.88545e-05
1.88741e-05
2.82152e-05
2.42067e-05
-1.97265e-05
3.13714e-05
2.67721e-05
-2.78915e-05
-1.14409e-05
4.39797e-05
-1.84724e-05
6.2898e-06
-9.4166e-06
3.67078e-05
-1.6539e-05
-2.21907e-05
-3.26345e-05
2.11541e-05
-9.05292e-05
-2.25268e-05
7.17805e-06
-1.67802e-05
-5.12952e-05
-4.1526e-05
3.02582e-05
1.8758e-05
1.34513e-05
6.7997e-05
0.000103677
-2.68697e-05
-5.6222e-05
-7.36862e-06
-8.72905e-06
-8.22102e-06
-0.000119192
3.07655e-05
9.97079e-05
7.93554e-05
2.35235e-05
2.89525e-06
3.23562e-05
6.61926e-06
-1.27413e-05
-1.12366e-05
3.50189e-06
6.08938e-05
-6.73463e-06
5.99329e-05
-9.10764e-06
-4.93438e-05
-1.25013e-05
-1.79209e-05
3.41784e-05
-3.37979e-05
7.39493e-06
5.9453e-05
0.000102923
1.58972e-05
2.07347e-06
6.60841e-05
-5.49529e-05
-6.42199e-05
4.83578e-06
5.86056e-05
-3.5362e-05
-0.000113618
-3.21862e-05
8.25257e-06
3.03723e-05
4.09456e-06
1.25879e-05
-2.57908e-05
4.03007e-06
-1.99422e-05
-0.000115459
-8.30332e-06
2.34318e-05
1.67681e-05
-9.89949e-06
-1.7794e-05
3.41057e-05
5.38381e-05
-8.89529e-07
-3.26862e-05
-1.44825e-05
1.08394e-05
2.86293e-05
1.41952e-05
-1.13221e-05
4.36332e-05
-9.70042e-06
4.36599e-05
-6.26e-06
-6.49597e-05
8.33401e-05
7.37351e-06
-2.3359e-05
-5.29966e-05
8.21927e-06
-7.6708e-05
-5.47341e-05
1.69979e-05
-2.35287e-05
6.9304e-05
-5.89244e-05
-1.58966e-05
-3.79689e-06
-4.3655e-05
1.75042e-06
6.90867e-06
-1.56343e-05
-1.26814e-05
-6.3139e-06
-2.87475e-05
6.35837e-05
-1.27369e-05
2.98877e-05
-1.94587e-05
0.00010666
-6.87316e-05
2.64239e-06
7.97829e-05
-7.28986e-05
-2.11627e-05
-1.82877e-06
-5.65487e-06
-3.07194e-05
-1.66823e-07
6.13098e-05
-4.53608e-05
-3.93705e-06
2.74233e-05
5.10009e-05
6.30144e-06
2.15231e-05
-5.9315e-05
-4.52384e-05
-4.56914e-05
-4.39741e-05
-2.38913e-05
-5.03426e-05
-2.24269e-05
-6.28912e-05
1.11947e-05
0.000117077
1.08852e-05
1.6035e-06
7.11577e-06
-1.24829e-05
-9.7961e-05
1.17273e-05
-2.43352e-05
-6.5287e-05
-4.57338e-05
9.77496e-05
-2.84506e-05
2.46854e-05
2.89711e-05
-3.39509e-05
9.19254e-05
-5.06386e-05
-3.13997e-05
4.17465e-07
2.26258e-05
5.23943e-05
-4.6351e-05
3.01981e-06
-7.25877e-05
3.62424e-05
4.53799e-05
5.10276e-05
4.96119e-05
1.14616e-05
6.3146e-06
1.38575e-05
1.41445e-06
1.35631e-05
-5.94303e-05
-5.26089e-05
-3.14451e-05
3.68987e-05
-1.13063e-06
4.39328e-06
1.65973e-05
1.01094e-05
-4.56735e-05
-5.67072e-05
-2.16054e-05
3.75346e-06
3.02104e-05
2.47173e-05
-3.70548e-05
-4.6816e-05
-8.03267e-05
-3.89206e-05
8.46448e-05
4.35195e-05
1.98979e-05
-8.17596e-06
-6.95733e-06
-5.38758e-05
3.58439e-05
-6.18508e-05
7.90434e-05
-1.5948e-05
-3.99172e-05
-6.26174e-05
3.51213e-05
5.15336e-05
1.97056e-06
-3.47046e-06
-9.94955e-06
5.45724e-05
-4.35945e-05
-3.20034e-05
3.58507e-05
-2.33698e-05
-7.19365e-06
3.16277e-05
-2.36784e-05
4.79083e-05
6.11598e-05
-1.5019e-05
5.83358e-05
-1.60113e-05
-5.555e-05
-4.11179e-05
3.92947e-05
8.73662e-05
-9.01846e-06
2.39066e-05
5.31228e-05
-2.11806e-06
3.75926e-05
-6.11143e-05
-5.37825e-05
4.75649e-05
-2.97432e-05
-7.41603e-05
-1.30143e-05
3.8296e-06
-4.95901e-05
-1.00627e-05
1.48063e-05
3.36743e-06
-4.77561e-05
-3.26619e-05
4.77943e-06
4.4096e-05
4.0431e-05
-4.65777e-05
-4.65791e-05
9.95421e-06
6.58097e-05
1.77752e-05
-1.76016e-05
-0.000102062
4.74708e-05
-2.01664e-05
-7.77561e-06
-8.79914e-06
4.50332e-05
-5.59178e-06
-5.70053e-05
-1.9311e-05
-3.39665e-05
4.75905e-05
2.16509e-05
-2.22092e-05
-2.47788e-05
-2.5415e-05
-5.89038e-06
-1.15657e-05
-4.13182e-05
-4.02358e-05
1.20595e-06
-4.48263e-05
2.04248e-05
3.38058e-06
-2.82915e-05
3.01641e-05
9.34862e-06
-6.71298e-05
-4.05739e-05
7.0934e-05
-3.39553e-05
-2.67511e-05
2.17741e-05
1.56355e-05
1.44392e-05
-8.90205e-06
-1.19942e-05
1.44325e-05
8.7028e-05
-9.70438e-07
1.24231e-05
-5.59279e-05
-1.92774e-05
3.90809e-05
3.06917e-06
-4.05498e-05
7.56653e-06
6.72848e-05
3.9499e-05
-7.47541e-05
-3.48643e-05
2.46887e-05
-5.16151e-05
3.76685e-06
-4.08547e-05
-1.83191e-05
8.32831e-05
-3.53504e-05
-3.56361e-05
-9.10182e-06
-2.37038e-05
-7.61581e-05
-4.31731e-05
-3.44524e-05
3.03324e-05
-5.93208e-05
-4.43429e-05
-1.38482e-05
2.80144e-05
4.43455e-05
7.11204e-06
-4.18397e-07
-3.37954e-05
5.63177e-05
4.62114e-05
-7.51623e-05
0.000106831
-4.85465e-05
-1.38164e-05
-8.41217e-07
-1.47608e-05
-6.57004e-05
-1.55208e-05