# vtk DataFile Version 1.0
Net Charge Density
ASCII
DATASET STRUCTURED_POINTS
DIMENSIONS 256 128 1
ORIGIN 0 0 0
SPACING 0.15625 0.15625 1
POINT_DATA 32768
SCALARS rhonet float
LOOKUP_TABLE default
-3.89607e-06
-9.51272e-05
0.000144792
9.63222e-05
3.56846e-05
0.000120451
-0.000118445
9.18579e-05
0.000154216
2.28992e-05
-3.75608e-05
0.000108726
0.00010382
7.94453e-05
0.000109347
4.99606e-05
8.77432e-05
0.000140235
4.05877e-05
-6.79099e-05
-6.4068e-06
0.000141859
0.000144767
4.77823e-05
3.72682e-05
2.07424e-05
7.74219e-05
9.05889e-05
-1.35215e-05
-7.27426e-05
5.23027e-05
3.97232e-05
4.36689e-05
6.90084e-05
1.24415e-05
0.000171713
1.68078e-05
7.28724e-05
7.73576e-05
-5.53031e-06
2.29322e-05
6.83242e-06
0.000136404
9.39814e-05
2.09394e-05
1.86831e-05
-3.16134e-05
6.95548e-05
0.000116214
7.88723e-05
-1.20078e-05
2.49783e-05
8.34423e-05
0.000148995
3.5595e-05
1.75036e-05
0.000151011
-5.1747e-05
5.67827e-06
7.16953e-05
5.02793e-05
6.06016e-05
7.16769e-06
8.018e-05
8.22493e-05
-8.03833e-05
4.41819e-05
0.000136175
4.09953e-05
4.82835e-05
7.92339e-05
3.67112e-05
-2.69157e-05
4.96679e-05
-1.14786e-07
5.11557e-05
4.20855e-05
-3.8308e-05
9.21621e-05
0.000106615
8.71844e-05
2.54083e-05
7.49615e-05
0.000101106
4.54683e-05
-4.48013e-06
-1.66909e-05
6.70489e-05
0.000119669
-2.34882e-05
9.00027e-05
-1.4795e-05
-3.90528e-05
-6.21472e-06
-8.99179e-05
5.22719e-05
0.000157961
2.4097e-05
9.16882e-05
-2.49445e-05
0.000157723
9.09186e-05
-3.16952e-06
9.47255e-05
3.90381e-05
0.000130971
-2.58209e-07
-6.85494e-05
2.66265e-06
7.39999e-05
0.00013342
5.79278e-05
2.02982e-05
3.31157e-05
8.04212e-05
4.36592e-05
1.22659e-05
7.49688e-05
5.09599e-05
4.32276e-05
-3.98807e-05
-3.45631e-05
4.04445e-05
2.44894e-05
0.00011572
6.60877e-05
1.8255e-05
8.13092e-05
1.99641e-05
-1.88099e-05
0.000119796
9.26158e-05
-2.24402e-06
3.77488e-05
2.03245e-05
6.79679e-06
4.46095e-05
-3.19164e-05
4.68965e-05
-1.1503e-05
-4.98407e-05
2.32951e-05
2.09624e-05
0.000160761
9.88222e-05
2.06346e-06
0.000137836
1.15247e-05
-3.1124e-05
0.000132418
1.78274e-05
2.91318e-05
0.000108428
-8.34535e-06
3.45046e-05
4.32305e-05
5.74626e-06
3.4271e-05
-5.27664e-06
1.75426e-05
7.67782e-05
2.50085e-05
0.000112709
-2.20696e-05
3.25853e-05
2.55229e-05
5.84617e-05
-6.12723e-05
0.000105448
0.000137295
2.50292e-05
4.32238e-05
7.45821e-05
0.000111579
-2.02684e-05
-8.13347e-06
8.72933e-05
-8.23222e-05
1.15575e-05
3.31802e-05
8.8769e-05
-7.05997e-05
-3.1811e-05
5.65383e-06
1.0499e-05
7.98532e-05
4.14201e-05
7.20927e-05
0.000102554
7.46852e-05
2.48841e-05
0.000198125
8.16119e-05
-6.56995e-05
6.24199e-05
0.000201229
4.75221e-05
8.32754e-05
7.86666e-05
-1.63086e-05
5.95986e-05
0.00014917
4.39009e-05
3.8335e-05
-1.00754e-05
6.97707e-05
-5.98882e-05
5.34235e-05
6.86802e-05
8.57902e-05
6.81024e-05
0.000137439
0.000106096
-2.40526e-05
0.000111081
-0.000131281
0.000102691
9.90945e-05
-5.28721e-05
-3.79215e-05
8.69742e-05
0.000114877
0.000176992
3.40518e-05
7.95296e-05
5.67443e-05
-3.69134e-05
-1.51402e-05
8.69038e-05
6.86068e-05
6.22799e-06
4.16548e-05
2.36378e-05
2.607e-05
0.000121307
-3.55702e-05
-2.05771e-05
2.7501e-05
5.94512e-05
8.97888e-06
1.8499e-05
8.6694e-05
-5.82668e-05
-3.07104e-07
2.65902e-05
-1.44092e-05
-2.21954e-05
-3.95462e-05
0.000128655
-4.29619e-06
2.10484e-05
-3.85132e-05
0.000102293
2.14382e-05
2.40526e-05
4.18614e-05
-0.0001049
2.47047e-05
-6.30282e-05
-2.51189e-05
-2.3887e-05
5.12255e-05
-2.60447e-05
-7.57636e-05
4.98929e-05
-6.6046e-05
-4.29e-05
2.33413e-05
-5.99084e-05
-8.02729e-05
3.00189e-06
-4.24265e-05
4.6622e-06
1.0891e-05
-2.15757e-05
-4.06045e-06
-5.82079e-05
-6.74946e-05
-0.000106138
-1.79204e-05
-2.0045e-05
-5.72714e-05
-2.52761e-05
7.73091e-06
-3.07411e-05
-8.53867e-05
-3.5389e-05
-8.36118e-06
2.74419e-05
-7.95684e-05
-6.67478e-05
2.31332e-05
-0.000103178
-3.37879e-05
1.98343e-05
-8.20332e-05
-5.15864e-05
-4.38415e-05
8.67248e-06
3.55993e-05
-2.47124e-05
4.87419e-06
-0.000112385
-3.15175e-05
3.88797e-05
-3.39411e-05
-6.56131e-05
-4.1193e-05
-3.17376e-05
2.98236e-05
-2.85318e-05
-3.54571e-05
-2.34867e-05
-0.00011611
1.48104e-05
-3.37932e-05
4.56311e-05
-5.12688e-05
-5.72853e-05
-3.73455e-05
-3.01473e-05
-6.05672e-05
-1.00289e-05
-7.96346e-05
-0.000109192
1.21043e-05
-4.39814e-05
9.01718e-06
-1.8436e-05
1.7242e-05
-5.13539e-05
-1.04335e-05
4.76099e-05
-2.54943e-05
5.74091e-05
2.16532e-07
-3.24125e-05
-5.0444e-05
-8.22557e-05
2.84832e-05
2.44663e-05
-6.16946e-05
-0.000158637
-4.16976e-05
-6.58911e-08
-1.69141e-05
8.77364e-06
5.33117e-05
3.1559e-06
-1.07938e-05
2.47143e-05
-5.96524e-06
3.43233e-05
-2.73113e-05
-6.84685e-06
-1.89501e-06
-4.36434e-05
-0.000106617
-3.96518e-05
-2.96775e-05
-3.556e-05
1.6422e-05
-5.91248e-05
-4.27185e-05
-1.0673e-06
-5.99923e-06
5.43522e-05
-3.5424e-05
-7.13802e-05
-7.13196e-05
4.017e-05
1.15474e-05
-5.23519e-05
-1.11547e-05
9.64501e-06
3.18993e-05
-8.57747e-05
1.39617e-05
-6.13795e-05
-7.74162e-06
-3.48632e-05
-1.67098e-05
-4.55659e-05
-6.96027e-05
1.7025e-05
-4.88108e-05
-2.07967e-05
1.59815e-05
-1.05535e-05
-2.35445e-05
-1.24411e-05
-3.31047e-05
-4.60123e-05
-1.33584e-05
-4.22456e-05
-8.323e-06
-5.94474e-05
-7.82579e-05
8.69716e-06
-2.01969e-06
-8.3825e-05
1.05491e-05
-3.22353e-05
-4.36764e-05
-0.000117681
-8.72533e-06
-3.99582e-05
-3.83079e-05
-7.16745e-05
9.37108e-06
3.00054e-05
-1.70409e-05
-2.39993e-05
-1.85543e-06
-5.11224e-05
-2.02563e-05
-8.13492e-05
-6.40947e-05
3.62425e-05
-8.02712e-05
-7.56327e-06
2.37455e-05
2.21168e-05
-5.27813e-05
-2.42516e-06
3.60706e-05
-9.46563e-05
1.02372e-05
-2.21479e-05
3.97031e-05
-4.13513e-05
-2.55482e-05
-5.70028e-06
3.04058e-05
-6.907e-05
-4.77678e-05
3.67505e-05
-4.79631e-06
2.05846e-06
-4.86562e-05
-0.000107547
-6.60245e-05
-2.66001e-05
-2.24798e-05
-9.32999e-06
-1.88574e-05
-0.000101449
6.32298e-06
3.69595e-05
4.61051e-06
-1.08491e-05
-2.36547e-05
-8.50842e-05
-3.90909e-05
4.81101e-05
-6.9777e-06
-7.51881e-05
-6.46281e-05
-4.379e-05
3.0756e-05
-5.53511e-05
1.83063e-06
-5.12166e-05
9.71669e-05
1.17975e-05
-4.14064e-05
-5.2241e-05
-4.83999e-05
-4.73994e-05
3.21256e-05
-3.50833e-05
-7.29871e-05
1.69803e-06
-2.53879e-05
-1.98883e-05
4.50586e-06
-1.73202e-05
7.05676e-05
5.70894e-05
-6.70664e-05
-3.48983e-05
-2.73386e-05
-7.02047e-05
-2.06066e-05
2.42675e-05
8.58861e-05
-8.70347e-05
6.93463e-06
-4.34534e-05
-3.62698e-05
6.90321e-05
3.75879e-05
-6.27581e-05
-4.99131e-06
2.55419e-05
-5.11215e-05
2.2625e-05
-1.34826e-05
-4.8021e-05
-1.98239e-05
3.05509e-06
3.73246e-05
3.42679e-05
-1.23484e-05
-2.31678e-05
-0.000132199
-1.6694e-07
-7.60623e-06
5.1258e-05
-7.35314e-06
-7.36318e-05
5.01692e-06
-3.30423e-05
-1.9914e-06
5.00254e-05
-7.79773e-06
-2.33894e-05
-8.48016e-06
1.05391e-06
-1.92291e-05
7.13235e-05
-5.15231e-05
7.82288e-06
3.11628e-05
6.53439e-05
-4.67902e-05
-2.90641e-05
-1.14904e-05
-2.49572e-05
-9.34284e-05
-2.04819e-05
3.51591e-05
4.88632e-05
3.64076e-05
-1.64526e-05
3.77698e-05
6.14582e-05
-4.75247e-05
4.4845e-05
4.40083e-05
9.82301e-06
-5.10865e-05
1.23072e-05
2.34442e-05
7.043e-05
4.96684e-05
-3.57148e-05
2.2529e-05
5.27373e-06
-2.51165e-05
4.8009e-05
3.40393e-05
2.11629e-05
-2.892e-05
-7.34262e-05
2.16753e-05
3.48729e-05
1.42108e-06
-4.63354e-05
1.81736e-06
-1.65711e-05
5.22442e-05
1.9271e-05
-4.25105e-05
-9.05943e-05
6.8841e-06
2.94284e-05
9.43255e-06
3.9076e-05
-4.0176e-05
2.79769e-05
-3.30699e-05
9.02753e-05
1.87056e-05
2.19359e-05
-2.38944e-05
3.89218e-05
7.95067e-05
-1.42981e-06
-1.07865e-05
-4.31229e-05
-5.63426e-05
3.6556e-05
5.69131e-06
-2.9766e-05
3.18506e-05
-3.75105e-05
-1.97686e-05
6.36958e-05
5.06417e-05
-4.80588e-05
-4.18769e-05
-9.31241e-06
-2.63562e-05
-1.33656e-05
5.09446e-05
7.4107e-05
-1.38804e-05
-5.52132e-05
-6.02389e-05
2.25466e-05
4.01649e-05
-3.56472e-05
4.60861e-05
6.0403e-05
1.00419e-05
-2.72854e-05
-6.84022e-05
1.03847e-05
-3.90667e-05
-6.67314e-05
1.89327e-05
-3.86651e-05
-7.26087e-05
1.55343e-05
3.4466e-05
-9.18168e-06
-2.52384e-05
3.49988e-05
6.71942e-05
-7.81461e-06
-2.34847e-05
1.90873e-05
-3.45567e-05
-3.24694e-06
3.17622e-05
-4.33621e-05
-4.44569e-05
-1.29164e-05
6.19071e-05
-1.54719e-05
-1.92425e-05
-9.33767e-07
1.07805e-05
-2.67865e-05
6.43284e-05
6.2841e-07
3.16112e-05
-3.45439e-05
-2.02107e-05
3.29809e-05
-8.92952e-06
-5.33779e-05
-6.5838e-05
-1.97738e-05
2.38337e-06
3.65477e-05
8.36782e-06
-1.87824e-06
1.4829e-05
-2.75736e-05
4.24774e-05
2.79525e-05
9.69106e-05
6.65826e-05
1.94266e-05
1.4567e-05
-1.36637e-05
5.90174e-05
5.77694e-05
-3.53307e-05
8.65563e-05
-1.88483e-05
-2.10218e-05
-5.39364e-05
1.12341e-05
-1.22988e-05
7.03163e-05
-1.07868e-05
6.14917e-06
5.7793e-05
3.47513e-05
-3.56394e-05
-5.85592e-06
4.3827e-05
2.99958e-05
1.48881e-05
3.0942e-06
-6.2997e-05
1.44138e-05
-9.34462e-05
4.10881e-05
-3.34161e-05
-7.29717e-05
6.78631e-06
-4.31379e-05
3.26064e-05
-5.40693e-05
-3.51892e-05
-7.38108e-06
-3.46784e-05
7.78108e-06
5.28591e-05
1.66988e-05
-1.61515e-06
7.61891e-05
-2.89583e-06
5.27902e-05
3.30989e-05
2.69054e-05
3.20114e-05
-4.14011e-05
-7.91213e-05
6.70389e-06
-3.71061e-05
3.38536e-07
3.12878e-05
2.55895e-05
4.62432e-05
-7.34441e-06
3.85575e-05
-1.82481e-05
8.60398e-05
-3.51763e-05
-2.42105e-05
-2.44786e-05
3.96876e-05
3.96364e-05
-5.59608e-06
-1.59817e-05
5.26491e-05
-3.12823e-05
-9.51323e-06
1.32089e-05
3.0308e-05
4.01441e-05
-6.21302e-05
6.55768e-06
-4.02804e-05
7.68165e-05
-2.30569e-05
2.42714e-06
-2.36239e-05
-7.65675e-06
1.05624e-06
-7.58459e-05
1.89049e-05
4.24923e-05
2.73332e-06
-4.68805e-05
-0.000111356
2.32975e-05
1.92825e-05
1.66951e-06
4.11416e-05
-1.26262e-05
3.11423e-06
-2.15395e-05
-7.41896e-05
3.57798e-05
1.81661e-05
-4.43212e-05
1.38062e-05
2.4942e-05
-1.40066e-05
-5.45266e-05
-1.59669e-05
4.8483e-05
-4.49934e-06
-0.000139603
5.79737e-05
3.08061e-05
0.000100899
-3.72755e-05
3.8272e-05
1.96727e-05
-2.19462e-05
-3.16998e-05
-3.15025e-05
5.79797e-05
8.84752e-05
-9.06712e-06
-5.99885e-05
9.21846e-06
8.46398e-06
-1.88593e-08
-2.07848e-05
-3.90379e-05
0.000130275
-3.43213e-05
-4.7052e-05
5.37112e-05
-2.7963e-06
2.82261e-06
-3.79193e-05
-6.0541e-05
4.75422e-05
4.84355e-05
-1.75372e-05
3.74631e-05
-5.19102e-05
4.18175e-05
3.39495e-05
-6.99727e-05
2.73657e-05
3.8806e-05
1.67808e-05
-5.26787e-05
6.28685e-05
-2.19626e-05
-4.31007e-05
-7.40332e-06
-2.66794e-05
4.25464e-05
3.65009e-06
2.75727e-05
-4.73876e-05
-6.43707e-06
3.03095e-05
-2.263e-05
-8.19336e-05
-4.9582e-05
1.36235e-05
3.36365e-05
4.53521e-05
-3.78166e-05
6.72047e-05
-2.02061e-05
-6.23037e-05
4.74699e-05
4.62763e-05
1.24054e-05
3.82883e-05
2.15031e-05
5.87144e-05
-6.50003e-05
-4.25663e-05
-1.34121e-05
4.39062e-05
4.78703e-05
-2.23207e-05
-6.05175e-05
1.98302e-06
-2.43727e-06
-3.00118e-05
1.48918e-05
2.92046e-05
7.28865e-05
7.06636e-05
-3.58255e-05
-0.000140628
2.58457e-05
1.20327e-06
-2.88258e-05
-4.697e-05
5.72428e-05
3.12586e-05
1.75566e-05
-0.000107817
-1.5847e-05
1.13324e-05
3.99519e-05
3.28139e-05
-4.30101e-05
3.20364e-05
3.74886e-05
-3.91935e-05
2.83314e-05
3.71942e-05
-1.37144e-05
3.56364e-05
-5.44165e-05
8.30449e-05
3.03247e-05
-1.9427e-05
-2.67292e-05
6.84275e-05
4.1218e-05
-2.91595e-05
3.35344e-05
3.92133e-05
3.68372e-05
-3.48369e-05
-2.81518e-05
1.41673e-05
3.52946e-05
-7.15666e-05
-2.16161e-05
4.60055e-05
3.64992e-05
2.3186e-05
-3.12356e-05
-7.13484e-05
2.25477e-05
-3.52726e-05
7.69855e-05
-4.16434e-05
-1.37859e-05
7.45142e-05
-5.4067e-05
4.00399e-06
-1.77845e-05
-5.58053e-05
2.01231e-05
5.95977e-06
5.05813e-05
6.31161e-05
-6.5826e-05
8.14185e-05
-4.32236e-05
-2.44335e-05
2.67205e-05
4.39433e-06
9.56794e-06
7.65512e-06
4.39142e-06
-4.22159e-05
2.17031e-05
1.01278e-05
-1.56356e-05
-7.88145e-05
-2.79717e-05
-7.3316e-06
2.62831e-05
6.22845e-06
2.38395e-05
-8.04092e-06
5.26161e-05
3.00964e-05
-3.07956e-05
-8.68589e-05
1.14746e-05
3.87334e-05
1.11606e-05
-2.85619e-05
-9.12463e-06
-2.48139e-06
2.21179e-05
-3.22994e-06
2.53445e-05
2.25464e-05
3.20962e-05
-2.08741e-05
-3.06277e-06
6.05558e-06
-3.41388e-06
3.49663e-05
-2.44873e-05
5.34734e-05
1.96629e-05
1.27886e-05
-1.15689e-05
2.9253e-05
2.87092e-06
3.39592e-05
-1.87168e-05
-2.88652e-06
-6.90417e-05
2.46684e-05
-5.03915e-06
-1.26838e-05
2.05979e-05
-2.634e-05
-2.66172e-06
-3.02474e-05
-7.38929e-05
-1.16546e-05
0.000124286
-9.67181e-05
2.30568e-05
4.0888e-05
1.12082e-05
1.89699e-05
2.2975e-05
-6.50402e-05
-1.85561e-05
-3.58939e-05
9.88832e-06
-2.25084e-05
-0.000114619
5.06437e-05
-0.000120174
-5.2155e-05
0.000129995
-2.85542e-05
-3.29317e-05
1.39812e-05
-3.08815e-06
-4.58444e-06
-6.87173e-05
5.00935e-07
2.54064e-05
-3.06814e-05
-4.83696e-05
-2.09836e-05
3.77458e-05
3.9908e-05
1.09902e-05
-3.37759e-05
2.43064e-05
4.91922e-05
4.58604e-05
-7.13925e-05
-6.57423e-05
-4.48681e-05
5.14658e-05
2.45101e-06
-1.54716e-06
-6.96706e-05
3.42494e-07
-1.04236e-05
6.89458e-06
-2.29044e-05
-2.35555e-06
-3.06218e-05
3.27418e-05
-3.2268e-06
-1.03377e-05
-2.52562e-05
2.84621e-05
9.52227e-05
-3.02619e-05
3.21715e-05
4.43812e-05
-4.54092e-05
-0.000101102
-3.30776e-05
0.00011101
6.25442e-05
-5.2828e-05
-0.000107186
-1.18124e-05
6.85672e-05
3.46118e-05
-5.40467e-05
-5.21383e-05
4.75172e-05
-4.06367e-05
-0.000119436
6.1204e-05
-1.81564e-05
-3.11725e-05
0.000105493
-4.54735e-05
-9.2944e-05
-5.38456e-05
9.50601e-06
-5.54989e-05
1.67228e-05
4.28164e-06
-7.23698e-05
6.52391e-06
4.59251e-05
6.77723e-06
-2.06707e-06
5.32218e-05
2.83385e-05
-3.7598e-05
-4.85517e-05
0.000104193
-1.62808e-05
-5.72775e-06
-2.96999e-05
-2.67255e-06
-4.5812e-05
8.22777e-06
-1.31112e-05
-4.38886e-05
-3.36713e-05
-5.49546e-05
4.80606e-05
-3.43904e-05
5.50936e-05
-3.26771e-05
-2.49939e-05
-9.60927e-06
3.26966e-05
-4.34379e-05
8.2174e-05
3.99002e-06
1.01079e-05
-2.64163e-05
-1.68534e-06
5.18315e-05
-5.05229e-05
7.65342e-05
-2.69973e-05
-2.84478e-05
5.25336e-06
1.91292e-05
5.75276e-05
-1.55075e-05
1.41476e-05
1.54795e-05
9.67545e-05
-2.60593e-05
2.79746e-06
-6.86488e-05
-4.36453e-06
5.35569e-06
-6.23055e-07
-1.12274e-05
2.76116e-05
-7.06456e-05
2.38866e-05
3.64635e-05
-5.86116e-06
-1.47324e-05
5.85362e-05
-1.46381e-06
5.05708e-07
-8.36374e-06
-6.68825e-05
-7.45896e-06
-5.66773e-05
5.49144e-05
-1.55681e-05
-6.51169e-05
1.93971e-05
-2.50089e-05
1.49549e-05
4.44497e-05
-8.87853e-06
-5.64917e-05
-7.07043e-05
-8.34174e-06
-2.96303e-05
-2.15287e-06
-1.83213e-05
-1.89303e-06
-0.000102778
8.7478e-06
3.24822e-05
3.07963e-05
-0.000103662
-3.61553e-05
2.02424e-05
8.3911e-05
4.753e-06
-1.31454e-05
3.19695e-05
7.14674e-07
-3.7137e-05
-7.51376e-05
-6.92117e-05
-2.21271e-06
-7.09705e-05
1.36695e-06
-4.37519e-05
5.21007e-05
-3.20333e-05
-2.11226e-05
9.38214e-06
-1.06066e-06
4.85103e-06
-2.59297e-05
5.72978e-05
-2.0384e-05
4.02208e-05
1.71231e-05
-4.3611e-05
4.79096e-06
-4.09898e-05
-3.49013e-07
2.30944e-05
-3.31621e-05
1.34483e-05
1.23589e-05
-2.61038e-05
-4.63813e-05
1.17683e-05
-4.40205e-05
0.000100773
4.16172e-05
5.95755e-05
5.7274e-06
3.63542e-06
3.72168e-05
-2.83867e-05
-2.65326e-05
-3.87033e-05
-3.32439e-05
-2.94473e-06
-4.83496e-06
-7.42385e-05
-9.21182e-05
-4.12924e-05
9.36039e-05
1.79686e-05
2.46144e-05
5.07899e-05
-3.90918e-05
-4.86935e-05
-6.07771e-05
2.91874e-05
-7.01523e-05
2.39778e-05
5.71006e-05
1.43809e-05
-8.54449e-05
6.48921e-05
5.64149e-06
1.15009e-05
-0.000120717
5.33741e-05
7.36075e-05
5.39108e-06
1.38734e-05
1.18413e-05
-9.6513e-06
3.66954e-05
-3.03434e-05
4.71817e-05
6.17243e-05
-4.68141e-06
-4.04324e-05
-2.984e-05
4.83368e-06
-1.19209e-06
4.36949e-05
-1.84914e-06
-1.13774e-05
-1.7061e-05
7.82479e-05
-4.5842e-06
1.79141e-05
-3.62858e-05
-7.78632e-05
7.38347e-05
-9.19311e-05
-5.20796e-06
2.09284e-05
2.30595e-06
7.05894e-05
3.83815e-05
7.42136e-06
5.50147e-05
-1.01444e-05
4.60945e-05
-1.68376e-05
-5.88751e-05
-4.91891e-05
5.14215e-05
5.45887e-05
-1.9853e-05
5.8101e-05
3.02008e-05
1.38805e-05
2.24962e-05
6.25562e-05
6.90192e-06
-8.80082e-05
-1.34252e-05
-5.00772e-06
4.86999e-05
5.9925e-05
6.30919e-05
1.42702e-06
2.14425e-05
-2.66384e-05
-9.90462e-06
-6.22044e-05
-1.60282e-05
3.25947e-05
-3.85358e-05
-1.90417e-05
5.31544e-05
-2.28164e-05
1.54099e-05
-4.23556e-05
-5.64614e-07
-5.11485e-05
-1.0791e-05
-0.000114607
2.06345e-05
1.91701e-05
7.28538e-05
2.73277e-05
-4.94906e-05
5.05784e-05
5.27869e-05
6.41999e-05
-7.9897e-06
4.43973e-05
-4.86511e-05
-2.5887e-05
-3.12885e-05
9.7664e-05
-4.46024e-05
-4.87096e-05
2.70449e-05
-5.0458e-05
1.36547e-05
-9.01835e-05
-0.000131356
6.04797e-05
5.67493e-05
-1.70094e-05
2.47729e-05
-9.1081e-06
5.16702e-05
-8.06584e-05
3.82912e-05
3.78343e-05
1.59069e-05
-7.97596e-06
-6.65546e-06
3.57421e-05
3.13772e-05
-9.32619e-05
-4.72957e-05
-9.38072e-05
-4.97694e-05
6.84744e-05
-3.54394e-05
9.14535e-06
-3.66229e-05
3.8721e-05
1.69347e-05
4.47605e-05
-5.40495e-05
2.94939e-05
6.61318e-05
1.22413e-05
-6.64287e-05
1.13342e-06
1.48163e-05
-1.36934e-05
6.08948e-05
-9.09204e-07
7.89308e-05
9.09669e-06
5.26162e-05
-9.66373e-05
3.41132e-05
6.60541e-06
-1.27819e-05
-4.43454e-05
-2.06702e-05
3.14997e-06
-9.30391e-07
-6.30611e-05
-0.000100799
-4.15874e-05
-9.15081e-05
-4.81864e-05
5.62917e-05
-1.52458e-05
-5.22907e-05
-2.41203e-05
-1.08295e-05
-4.57688e-05
-4.23098e-05
1.19051e-05
2.83608e-05
-1.41362e-05
-5.28243e-05
-6.13476e-05
1.77323e-05
1.07327e-05
-2.08275e-05
5.9631e-05
1.79047e-06
2.51202e-05
-2.36356e-05
5.88677e-05
3.18951e-05
4.76104e-05
-7.31895e-05
7.22464e-05
-0.000100922
-6.24091e-06
6.49313e-05
8.48947e-06
3.23069e-05
-3.30689e-06
-4.32199e-05
2.37848e-06
1.99963e-05
-1.2729e-05
9.59379e-06
3.61393e-05
2.75429e-05
6.92139e-05
-2.724e-06
-6.32236e-05
-6.1458e-06
-7.61088e-06
-1.02114e-05
4.45035e-05
5.2012e-06
2.67315e-05
-6.63009e-06
-4.79864e-06
-2.94803e-05
1.43549e-05
5.68922e-06
6.79198e-05
9.01218e-06
3.43908e-05
1.84248e-05
1.29037e-05
-4.46523e-05
3.45935e-05
3.36547e-05
1.93832e-06
-1.88091e-05
4.46874e-05
-5.23897e-05
6.75368e-05
7.7465e-05
6.37211e-06
8.13847e-05
-3.18106e-05
2.20664e-05
-1.73566e-05
-2.87805e-05
-6.86573e-05
1.19236e-05
2.47911e-05
1.23705e-05
-3.48676e-05
2.16777e-05
-2.20751e-05
-3.52541e-06
1.23351e-05
1.70944e-06
2.97131e-05
-6.88559e-05
-1.33734e-05
9.18957e-05
-3.43513e-05
1.47285e-05
-1.23635e-05
4.94568e-05
2.42064e-05
-4.44686e-05
5.05936e-05
0.000106778
9.66933e-05
6.52506e-05
8.89646e-07
-7.20692e-06
-1.14569e-05
6.669e-05
-5.44812e-06
4.01792e-05
-2.33981e-05
4.1756e-05
-3.41269e-05
-2.13975e-05
6.28107e-06
-2.62643e-05
3.5821e-05
-8.93143e-05
4.69466e-05
-3.57551e-05
3.30246e-05
2.34637e-05
-9.97117e-05
2.21339e-05
3.57018e-05
-1.87464e-05
2.13265e-05
-6.78233e-05
2.71618e-05
-5.16977e-05
5.68144e-05
4.88434e-05
-1.74809e-05
3.8041e-05
4.5417e-05
1.17876e-05
-8.37992e-06
2.07494e-05
-2.0564e-05
5.28254e-05
-7.57064e-05
-4.2627e-05
-7.67258e-06
2.04988e-05
-1.54355e-05
-3.1233e-05
1.17396e-05
6.21652e-05
4.88085e-05
4.33624e-06
-0.00012757
-5.02244e-05
-6.86676e-05
-6.60998e-05
3.09136e-05
7.6151e-05
-7.0136e-05
-7.03044e-06
9.28529e-06
4.82404e-05
3.83984e-06
8.47317e-06
-6.75763e-05
-1.85833e-05
1.21736e-05
-8.66828e-06
-3.19523e-05
-1.42832e-05
3.18442e-06
7.33056e-06
1.82407e-05
2.56517e-05
-6.78841e-05
-4.71424e-06
3.4929e-05
-5.05326e-05
1.07944e-05
-1.50145e-05
-1.63051e-05
-2.95395e-05
9.53887e-05
2.63902e-05
-1.76689e-05
-2.1502e-05
-1.27995e-05
8.03266e-06
-1.35812e-05
2.63904e-05
-7.18492e-06
-1.90847e-05
2.17274e-05
5.39324e-05
-9.03436e-05
5.79039e-05
-1.44773e-05
-1.46056e-05
-3.83228e-05
-4.5439e-05
2.61622e-05
5.74819e-05
2.07163e-05
1.80587e-05
2.6194e-05
-7.22194e-06
-2.65964e-05
2.38707e-05
-3.81795e-05
-3.2999e-05
2.8661e-05
4.19572e-06
5.34139e-05
-1.2902e-05
-4.54625e-06
9.10495e-05
1.63321e-05
1.6914e-05
-4.6327e-05
3.55742e-05
-3.91717e-05
2.2946e-05
1.72229e-05
3.08629e-06
6.80583e-05
6.72811e-05
-1.70232e-05
-7.54697e-06
4.55859e-05
-1.23873e-05
-6.61262e-06
0.000122597
3.26277e-05
1.82131e-05
2.49495e-05
-5.22538e-05
-2.22394e-05
-5.70166e-05
1.30443e-06
7.6904e-06
2.41781e-05
1.07717e-05
-5.20684e-05
1.76706e-05
6.44929e-05
-6.11884e-05
5.44073e-05
-4.49324e-05
-7.05203e-05
6.23078e-06
3.2792e-05
4.70872e-05
1.32667e-06
1.32956e-05
-7.78602e-05
-2.8183e-05
-6.89272e-06
0.000112601
3.68477e-05
-3.34256e-05
4.85627e-05
3.18349e-05
1.14888e-05
6.94899e-05
0.000133271
-7.38588e-05
-4.20366e-05
-1.68968e-05
2.04105e-05
8.13231e-06
-1.95543e-05
3.47551e-05
5.0591e-05
-6.30394e-05
-4.22691e-05
1.79623e-05
5.70345e-05
-6.66478e-07
2.83985e-05
-3.47798e-05
-8.23166e-05
-3.16931e-05
-5.51023e-05
-1.69483e-05
6.43993e-05
-5.57774e-05
5.25212e-05
-0.00011234
-7.10648e-05
-1.52229e-05
-1.60271e-05
-3.59302e-05
5.28325e-05
4.40273e-05
-4.7544e-06
-6.05783e-05
-2.03247e-05
1.72126e-05
2.40906e-05
-2.15004e-05
-3.80276e-05
1.8421e-05
-5.2297e-05
-1.48044e-05
-9.04261e-05
-1.86138e-05
-1.40986e-05
0.000121307
-2.54702e-05
5.25209e-05
3.7947e-05
3.11935e-05
-3.85306e-05
-5.10272e-06
-4.49661e-05
2.62952e-05
1.12427e-05
-1.86055e-05
1.74432e-05
-3.76217e-05
8.71078e-06
-3.17952e-05
7.1465e-05
-7.47017e-05
0.000101809
5.19643e-05
3.18052e-05
1.94153e-05
4.63652e-05
-3.0048e-06
1.62397e-05
7.99994e-05
3.67616e-06
-1.37989e-05
-5.2109e-05
-5.62187e-05
2.68224e-05
-3.78024e-05
-4.78232e-05
2.88626e-05
-2.68995e-05
-1.16545e-05
-5.02805e-05
3.10764e-05
-2.006e-05
3.81089e-05
-8.71741e-05
-4.69051e-05
1.67186e-05
4.92436e-05
9.12813e-06
1.42574e-06
-6.6942e-05
-7.27302e-05
-1.43618e-05
-9.74443e-06
-1.5698e-05
2.67377e-05
-9.21222e-05
-5.88649e-05
-1.25874e-05
5.10607e-05
-8.97488e-05
7.86019e-05
1.30897e-05
1.51682e-05
-0.000114672
-4.19708e-05
1.06477e-05
8.84163e-05
-6.75302e-06
-6.93055e-06
1.0808e-05
-9.15198e-05
-1.49586e-05
1.07784e-05
5.18087e-05
-3.28285e-05
4.25938e-05
9.43081e-06
7.85687e-07
4.03608e-05
-3.83414e-06
2.66726e-05
-2.21874e-05
6.11879e-07
2.16393e-06
1.83085e-05
-2.01637e-05
-7.52349e-05
-8.20153e-05
-4.08834e-05
3.06881e-05
3.11448e-05
-1.76033e-05
-1.14898e-05
3.87504e-05
9.27423e-06
1.17532e-05
-4.4487e-05
-5.27485e-05
-4.2652e-05
9.6072e-05
-3.91065e-05
-6.17561e-05
-4.51247e-05
4.72041e-06
-4.15782e-05
-1.74751e-06
2.57667e-05
4.81143e-05
-3.50769e-05
2.8915e-05
3.42638e-05
2.19486e-05
-2.03148e-05
-2.84291e-05
2.95845e-05
6.23252e-05
1.81489e-05
-1.77097e-05
-4.22896e-05
-3.51784e-06
6.3222e-05
3.54624e-06
7.63207e-06
-5.29422e-06
1.01695e-05
2.74982e-05
2.91364e-05
-2.60756e-05
-5.97397e-05
8.67876e-05
3.29314e-05
-1.45729e-05
-1.4237e-05
5.72898e-05
3.84287e-06
9.8189e-05
0.000121367
-2.85937e-05
2.49979e-05
7.872e-06
-1.86713e-05
-1.70153e-05
-7.32372e-05
0.00011208
-1.25971e-05
-6.01786e-05
7.86257e-06
3.08842e-05
9.78436e-06
7.84115e-06
1.71366e-05
4.81959e-08
-2.67223e-05
-2.56805e-05
-4.13371e-05
-4.55836e-05
-1.76234e-05
-7.76618e-06
-4.82695e-05
7.13979e-05
1.64241e-05
3.01737e-05
-3.19598e-05
1.3984e-05
-1.39402e-05
-1.55894e-05
4.47617e-06
-1.65857e-05
8.27657e-05
5.56016e-05
5.67234e-06
3.54117e-05
2.86195e-06
-1.63056e-05
2.07499e-05
9.63255e-06
-1.4501e-05
-4.8888e-05
-4.07479e-05
-9.69227e-06
4.12578e-05
-2.15801e-05
-3.41529e-05
5.64973e-05
-1.37317e-05
-5.04198e-05
3.84739e-05
-2.33621e-05
-1.19559e-06
-5.94468e-05
5.95255e-06
6.40079e-05
-7.39726e-05
-2.23712e-05
-4.28851e-06
-7.43164e-05
-1.58099e-05
5.60066e-05
-2.41018e-05
5.20142e-05
4.58723e-05
-3.16431e-05
0.000122277
2.8996e-05
1.20702e-05
-2.74093e-05
-3.44679e-05
-3.20203e-05
5.98456e-05
4.27903e-05
-2.5427e-05
-1.62855e-05
4.25264e-05
4.55979e-05
-7.0805e-05
-4.53838e-05
-1.75916e-05
6.00131e-05
3.7081e-05
4.36979e-05
-7.64476e-06
2.17558e-05
1.48427e-05
1.47811e-05
3.49524e-05
1.44986e-05
-7.17355e-05
5.90796e-05
3.93528e-05
-1.62122e-05
4.74525e-05
-1.84558e-05
-3.84229e-05
8.46087e-05
5.78985e-05
5.29935e-05
-2.8295e-05
-1.40264e-05
-3.38187e-06
6.56864e-05
1.70164e-05
1.81664e-05
-1.45179e-05
-3.22158e-05
8.30181e-06
5.70647e-05
3.72084e-05
6.89623e-05
3.92863e-05
3.07858e-05
-1.59348e-05
4.17507e-05
8.47271e-06
-3.21824e-05
-1.07554e-05
-1.45924e-05
5.39321e-05
1.21894e-05
2.11236e-05
-2.64748e-05
1.12986e-05
-2.39079e-05
-1.44508e-05
1.09978e-05
-7.73498e-06
4.69002e-06
1.6859e-05
6.67057e-05
1.57991e-05
-0.000107579
-8.24992e-05
6.52345e-06
-5.8507e-05
5.17322e-05
1.84866e-05
1.66772e-05
-7.07682e-05
5.68549e-06
-1.86227e-05
-4.33433e-05
5.83276e-05
-4.15358e-05
-7.76732e-05
-1.33207e-05
-3.74753e-05
-1.09943e-06
5.06312e-05
3.43448e-05
5.21399e-05
2.95315e-05
4.71437e-05
-2.02374e-05
0.000134812
5.51658e-05
-3.82705e-05
-1.12216e-05
0.000111732
1.12795e-06
-1.3834e-05
-2.07326e-05
-1.0534e-05
5.75138e-06
2.51087e-05
-6.47182e-05
1.22259e-06
0.00011825
2.02318e-05
-6.96791e-05
-8.34576e-05
9.06892e-05
4.29543e-05
-6.09935e-05
-2.33692e-06
4.52425e-06
-2.48614e-05
-7.4984e-05
-6.3011e-06
3.39795e-05
6.28869e-05
-2.65893e-06
-2.97544e-05
-6.67727e-05
-1.08315e-05
7.42322e-06
3.03183e-05
-1.26914e-05
1.26481e-05
-3.24743e-05
-1.54031e-05
4.65959e-05
-6.0664e-07
-7.33231e-05
-3.6117e-05
3.19344e-05
5.07125e-05
5.52052e-05
-3.86609e-05
-2.71022e-05
-1.73238e-06
4.00438e-05
-1.28824e-05
1.15237e-05
2.75385e-05
1.51006e-05
2.02364e-05
3.27823e-05
-0.000103584
-2.37204e-05
5.62994e-05
-3.56046e-05
-8.56416e-05
0.000101618
-2.90701e-05
2.15792e-05
-5.19508e-05
6.29341e-06
-5.95588e-05
3.80212e-06
-4.0116e-05
2.2179e-05
-9.73768e-06
6.35824e-05
-2.76124e-05
-2.54387e-05
9.06731e-05
-5.55889e-05
-3.51444e-05
1.47806e-05
-2.3094e-05
3.4685e-05
-4.10149e-05
-1.09316e-05
2.98404e-05
3.45644e-05
-4.78461e-05
-5.78742e-05
-3.72987e-05
3.5862e-05
-1.02365e-05
-1.76753e-05
3.83477e-05
4.55033e-06
-3.0726e-05
-6.31748e-05
6.19004e-06
-5.68882e-05
0.000120349
-0.000117729
-6.80867e-05
1.01868e-05
-1.02158e-05
2.8216e-05
-1.9602e-05
-6.25569e-06
3.50751e-05
9.93174e-06
-5.96482e-05
5.40575e-05
-2.97569e-05
-7.25733e-07
-9.39087e-06
-2.64803e-05
5.89007e-05
9.35846e-05
7.95012e-05
-1.6892e-05
-6.8293e-05
-7.77043e-05
4.75619e-05
-1.31782e-06
1.17444e-05
5.16305e-05
-6.31507e-05
2.21427e-05
3.45728e-05
-3.89622e-05
4.92729e-05
9.85339e-06
-2.73692e-05
-7.18009e-05
-2.20758e-06
9.41206e-06
5.68596e-05
-2.01401e-05
-8.62195e-06
7.09028e-06
9.574e-07
-2.91977e-05
-3.67723e-05
9.87202e-07
-7.08329e-06
-7.7707e-05
4.07124e-05
2.2804e-05
-2.33529e-05
-2.82733e-05
6.35581e-06
-3.10614e-05
-2.37789e-05
5.87656e-05
3.77757e-05
-8.88546e-05
1.88741e-05
2.82153e-05
2.42067e-05
-1.97263e-05
3.13714e-05
2.67723e-05
-2.78916e-05
-1.14408e-05
4.39797e-05
-1.84722e-05
6.2898e-06
-9.4166e-06
3.6708e-05
-1.6539e-05
-2.21909e-05
-3.26345e-05
2.11541e-05
-9.05292e-05
-2.25268e-05
7.17817e-06
-1.67802e-05
-5.12954e-05
-4.1526e-05
3.02582e-05
1.8758e-05
1.34513e-05
6.79971e-05
0.000103677
-2.68697e-05
-5.6222e-05
-7.36851e-06
-8.72894e-06
-8.22102e-06
-0.000119192
3.07657e-05
9.9708e-05
7.93554e-05
2.35232e-05
2.89525e-06
3.23564e-05
6.61938e-06
-1.27413e-05
-1.12366e-05
3.50189e-06
6.08938e-05
-6.73486e-06
5.99329e-05
-9.10764e-06
-4.93438e-05
-1.25011e-05
-1.79207e-05
3.41786e-05
-3.37977e-05
7.39505e-06
5.94528e-05
0.000102923
1.58973e-05
2.07382e-06
6.60841e-05
-5.49528e-05
-6.42202e-05
4.83578e-06
5.86056e-05
-3.53617e-05
-0.000113618
-3.21862e-05
8.25233e-06
3.03725e-05
4.09468e-06
1.25879e-05
-2.57908e-05
4.03018e-06
-1.99422e-05
-0.000115459
-8.30344e-06
2.34316e-05
1.67681e-05
-9.89949e-06
-1.77941e-05
3.41057e-05
5.3838e-05
-8.89762e-07
-3.26859e-05
-1.44823e-05
1.08394e-05
2.86294e-05
1.41951e-05
-1.13221e-05
4.36332e-05
-9.70042e-06
4.36599e-05
-6.25988e-06
-6.49597e-05
8.33401e-05
7.37351e-06
-2.3359e-05
-5.29964e-05
8.21915e-06
-7.6708e-05
-5.47341e-05
1.69979e-05
-2.35287e-05
6.9304e-05
-5.89241e-05
-1.58966e-05
-3.79677e-06
-4.36553e-05
1.75042e-06
6.90855e-06
-1.56343e-05
-1.26812e-05
-6.3139e-06
-2.87474e-05
6.35837e-05
-1.27369e-05
2.98877e-05
-1.94586e-05
0.00010666
-6.87316e-05
2.64239e-06
7.9783e-05
-7.28987e-05
-2.11628e-05
-1.82877e-06
-5.65487e-06
-3.07194e-05
-1.6694e-07
6.13098e-05
-4.53608e-05
-3.93693e-06
2.74231e-05
5.10009e-05
6.30133e-06
2.15231e-05
-5.9315e-05
-4.52383e-05
-4.56914e-05
-4.39743e-05
-2.38912e-05
-5.03426e-05
-2.24271e-05
-6.28912e-05
1.11947e-05
0.000117078
1.08853e-05
1.60362e-06
7.11577e-06
-1.24829e-05
-9.79607e-05
1.17276e-05
-2.43353e-05
-6.52869e-05
-4.57339e-05
9.77498e-05
-2.84506e-05
2.46854e-05
2.89711e-05
-3.39509e-05
9.19255e-05
-5.06385e-05
-3.13995e-05
4.17465e-07
2.26256e-05
5.23943e-05
-4.6351e-05
3.0197e-06
-7.25877e-05
3.62425e-05
4.53799e-05
5.10276e-05
4.96123e-05
1.14614e-05
6.3146e-06
1.38574e-05
1.41433e-06
1.3563e-05
-5.94303e-05
-5.26089e-05
-3.14451e-05
3.68987e-05
-1.13063e-06
4.39328e-06
1.65973e-05
1.01094e-05
-4.56735e-05
-5.67072e-05
-2.16054e-05
3.75335e-06
3.02104e-05
2.47173e-05
-3.70545e-05
-4.6816e-05
-8.03267e-05
-3.89203e-05
8.46446e-05
4.35197e-05
1.98978e-05
-8.17573e-06
-6.95745e-06
-5.38758e-05
3.58442e-05
-6.18508e-05
7.90434e-05
-1.59479e-05
-3.99172e-05
-6.26172e-05
3.51212e-05
5.15338e-05
1.97056e-06
-3.47057e-06
-9.94955e-06
5.45722e-05
-4.35947e-05
-3.20034e-05
3.58507e-05
-2.33697e-05
-7.19377e-06
3.16277e-05
-2.36785e-05
4.79082e-05
6.11598e-05
-1.5019e-05
5.83357e-05
-1.60113e-05
-5.55501e-05
-4.11179e-05
3.92947e-05
8.73662e-05
-9.01858e-06
2.39066e-05
5.31228e-05
-2.11806e-06
3.75926e-05
-6.11143e-05
-5.37825e-05
4.75649e-05
-2.97432e-05
-7.41602e-05
-1.30141e-05
3.82971e-06
-4.95901e-05
-1.00629e-05
1.48062e-05
3.36743e-06
-4.77561e-05
-3.26619e-05
4.77966e-06
4.4096e-05
4.04309e-05
-4.65775e-05
-4.65789e-05
9.95432e-06
6.58093e-05
1.77752e-05
-1.76018e-05
-0.000102062
4.74708e-05
-2.01664e-05
-7.77561e-06
-8.79902e-06
4.50332e-05
-5.59166e-06
-5.70053e-05
-1.9311e-05
-3.39666e-05
4.75905e-05
2.16509e-05
-2.2209e-05
-2.47788e-05
-2.54149e-05
-5.89027e-06
-1.15657e-05
-4.13182e-05
-4.02358e-05
1.20618e-06
-4.48263e-05
2.04248e-05
3.38082e-06
-2.82915e-05
3.01643e-05
9.34862e-06
-6.71298e-05
-4.05738e-05
7.09337e-05
-3.39553e-05
-2.67511e-05
2.17741e-05
1.56355e-05
1.44392e-05
-8.90193e-06
-1.1994e-05
1.44324e-05
8.7028e-05
-9.70205e-07
1.24228e-05
-5.5928e-05
-1.92773e-05
3.90806e-05
3.06929e-06
-4.05498e-05
7.56653e-06
6.72849e-05
3.9499e-05
-7.47542e-05
-3.48641e-05
2.46889e-05
-5.16151e-05
3.76673e-06
-4.0855e-05
-1.83191e-05
8.32829e-05
-3.53504e-05
-3.56364e-05
-9.10193e-06
-2.37034e-05
-7.61581e-05
-4.31731e-05
-3.44524e-05
3.03324e-05
-5.93208e-05
-4.43429e-05
-1.38484e-05
2.80144e-05
4.43455e-05
7.11204e-06
-4.1828e-07
-3.37954e-05
5.63173e-05
4.62113e-05
-7.51623e-05
0.000106831
-4.85467e-05
-1.38164e-05
-8.41217e-07
-1.47609e-05
-6.57006e-05