# vtk DataFile Version 1.0
Net Charge Density
ASCII
DATASET STRUCTURED_POINTS
DIMENSIONS 256 128 1
ORIGIN 0 0 0
SPACING 0.15625 0.15625 1
POINT_DATA 32768
SCALARS rhonet float
LOOKUP_TABLE default
-8.89964e-05
-0.00016443
6.73246e-05
0.000180924
3.86278e-06
0.000191473
3.31746e-05
-3.29301e-05
0.000211425
0.00020405
2.30237e-05
0.000279595
0.000127751
-0.000183836
-0.000216214
0.000243326
0.000142679
-9.87003e-05
-2.87002e-05
2.38952e-05
4.87664e-06
0.000126141
-8.77728e-05
5.35581e-05
9.73924e-05
2.47746e-05
7.28203e-05
7.33132e-05
0.000266093
4.4556e-05
-0.000187995
-0.000141228
0.00013852
0.00019782
4.20047e-05
0.000104592
0.000146124
-7.05899e-05
3.89591e-05
2.232e-05
0.000178941
0.00013508
8.85108e-05
0.000102748
0.000125256
6.33777e-06
2.51118e-05
8.20984e-05
5.31512e-05
0.000119896
0.000161602
-1.11039e-05
0.00015061
0.000179719
-9.16779e-05
-3.29586e-05
-3.99987e-05
0.000187685
0.000135206
0.000108328
-0.000173156
0.000276284
0.000165612
-3.8438e-05
-0.000121112
5.01915e-05
-8.66071e-05
0.00015755
1.51979e-05
-7.60976e-05
-6.64494e-05
-0.000151567
-3.4168e-05
0.000301609
7.66139e-05
-4.76976e-05
6.83875e-05
0.000145776
6.34149e-05
1.53661e-05
-0.000111346
-6.43476e-05
0.000307742
0.000107896
0.000156532
0.000151515
0.00018837
-0.000153581
0.000203114
0.00031454
8.47194e-05
-5.67471e-05
3.6509e-06
4.219e-05
-1.17713e-05
0.000185573
-6.01253e-05
9.2515e-05
-0.000105055
0.000513904
0.00018112
-4.06468e-05
0.000103039
-1.57753e-05
1.81859e-05
0.000185247
1.56633e-05
-3.30393e-05
3.95835e-05
-5.65073e-05
9.67322e-05
0.000135004
-7.10147e-05
-0.000116246
-0.000293087
-1.20507e-05
0.000196575
0.000161801
1.39733e-05
-0.000188641
5.7463e-05
1.23903e-05
6.46164e-05
4.7017e-05
1.39867e-05
-2.69527e-05
8.53456e-05
2.44344e-05
0.00018368
2.48261e-05
3.65495e-05
0.000122553
9.48426e-05
-3.01063e-05
9.04195e-05
5.78717e-05
0.000279149
0.000120272
0.000106484
-0.000217122
-4.58094e-06
6.54797e-05
-4.92658e-06
4.93007e-05
-3.99717e-05
0.00010235
0.00016881
-3.91197e-05
3.76487e-05
0.000252592
-8.82365e-05
-4.82018e-05
0.000177523
0.000274355
0.000128818
6.23011e-05
0.000135928
8.18388e-06
4.77405e-05
6.06261e-05
0.000130789
0.000107803
-8.37162e-05
9.65768e-05
-5.18436e-05
-0.000102245
0.000160799
0.00021839
0.000229293
4.46856e-05
-5.0218e-05
-2.03331e-06
-6.93207e-06
-3.22649e-05
9.88856e-05
0.000118852
0.000188594
-3.82811e-05
-0.000114186
9.30812e-05
0.000170247
0.000170585
-5.9947e-05
-0.000114894
3.01122e-05
0.000124835
0.000147015
0.000125633
0.000105981
0.000260402
0.000187681
0.000105557
7.29122e-05
-8.07225e-05
-0.000155445
0.00030499
0.000208996
3.35152e-05
0.000190698
6.13392e-06
7.672e-06
1.51945e-05
0.000192278
8.82994e-05
-0.000104467
0.00014671
-5.74146e-05
-8.37957e-06
-8.2468e-05
0.000302362
-2.5673e-05
-0.00012002
0.000139211
0.000212545
-6.37444e-06
-5.47462e-05
3.51253e-05
5.77911e-05
4.46552e-05
0.000108325
-9.93179e-05
-0.000142599
0.000304249
8.57087e-05
-0.000139694
0.000208727
-8.71237e-05
6.99724e-05
-0.00020923
3.65509e-05
0.000211047
-0.000121397
-8.78274e-05
0.000243595
0.000104742
7.16869e-05
0.000175832
-8.41694e-05
0.000117093
0.000292925
3.00534e-05
-0.000198833
0.000113081
8.61071e-05
0.000117134
0.000126007
4.07924e-05
2.43263e-05
0.000117619
-7.49808e-06
6.64268e-05
-0.0001827
-1.10205e-05
-0.000116789
-5.03098e-05
0.000113211
9.38512e-05
7.11088e-06
-1.07277e-06
-0.000114282
1.30753e-05
-9.59646e-05
-0.00018783
-1.47216e-05
0.000141969
-0.000105542
-2.11771e-05
0.000159347
-6.05981e-05
-0.000104908
-0.000191295
-3.15246e-05
2.67868e-05
-8.83365e-05
2.81917e-05
6.03006e-05
-2.11119e-05
-0.000153984
-6.70971e-06
-0.000122243
-5.28992e-05
-0.000213783
8.63422e-05
2.43842e-05
1.32935e-06
-1.46832e-05
-4.76749e-05
0.000114567
-3.2409e-05
-5.61227e-06
-1.98616e-05
-3.69212e-05
-3.4828e-06
-0.000116265
-5.25551e-05
-1.27137e-06
-2.64917e-05
-0.000104853
-3.60252e-05
8.13337e-05
-0.000105781
-0.000144953
7.52909e-05
4.11213e-05
-2.63745e-05
3.98705e-05
-9.31579e-05
4.86264e-05
8.56118e-07
4.31866e-06
-0.000119127
-7.30149e-05
6.05755e-05
2.74992e-05
-0.000101008
6.03886e-05
-2.35746e-05
-0.000135273
-4.44672e-06
1.76305e-05
-0.000143069
5.91768e-05
-6.20331e-06
4.06072e-05
8.06637e-05
-7.99192e-05
3.6455e-05
-5.82088e-05
-9.32394e-06
5.90801e-05
4.19957e-05
3.69131e-05
-4.19617e-05
-5.43676e-05
3.4102e-05
-4.67337e-05
-0.0001537
-6.71796e-05
6.00312e-05
-4.6812e-05
-3.43906e-05
-8.824e-05
4.55751e-05
-0.000176053
1.1282e-05
-0.00015407
-0.000127912
-9.47628e-05
-6.21467e-05
-4.80894e-05
5.24878e-05
-3.3679e-06
-0.000122984
4.3098e-05
-0.000154295
6.54003e-05
-0.00010901
-7.15224e-05
-5.46533e-05
0.000123682
-2.69086e-05
3.08173e-05
-0.000163153
0.000118408
-4.62125e-05
-0.000235137
-5.79355e-05
-7.17838e-05
-0.000163478
5.96764e-05
1.61467e-05
-7.24099e-05
2.98857e-05
-4.80521e-05
-4.58631e-05
-7.19619e-05
-3.38637e-05
-0.000109087
7.39483e-05
9.90361e-05
3.75016e-05
8.90731e-05
1.56956e-05
-6.02789e-05
2.84286e-05
-7.5818e-05
-6.37146e-05
0.000168836
-6.8859e-05
-0.000162257
2.27819e-05
1.59431e-06
-7.45541e-05
-0.000121428
-1.77685e-06
-0.000190662
0.000107859
0.000110056
-2.80037e-05
-1.88075e-05
-0.000179983
-8.35262e-05
9.67795e-05
8.11357e-06
6.51628e-05
0.000115119
-8.75529e-05
-5.66705e-05
4.48846e-05
-0.000137129
-9.15064e-05
-0.000117078
7.7782e-05
-6.16321e-05
-7.80416e-05
-4.3861e-05
6.10384e-05
-0.000105036
5.42323e-05
3.28161e-05
8.62763e-05
-5.3798e-05
-4.06351e-05
1.56844e-05
-4.02811e-05
-0.000211141
2.38116e-05
0.000203273
-1.50736e-05
4.13629e-05
-8.679e-05
-6.52752e-05
3.89041e-05
-0.000102638
1.51224e-05
-4.97353e-05
-2.76992e-05
2.26528e-05
-3.52251e-05
-0.000176033
-0.000125343
-3.13101e-05
-3.66243e-07
-0.000170565
-4.75526e-05
-5.78194e-05
-0.000183783
-2.11978e-05
5.88743e-05
5.74137e-06
-3.58104e-05
-5.21925e-06
-8.06735e-05
-0.000193738
-0.000104422
-3.91724e-05
4.23503e-05
-9.052e-05
-7.62012e-05
-8.52824e-06
0.000146161
-0.000152343
-5.96849e-05
9.52e-05
-0.000116925
9.23368e-05
-9.78986e-05
-1.47185e-05
0.000151847
2.37792e-05
-7.93703e-05
-2.82908e-05
-1.9288e-05
-2.44336e-05
-0.000142313
0.000105529
4.18114e-05
1.36644e-05
-1.15986e-05
-2.04692e-05
-2.06288e-07
-1.97634e-05
2.11212e-05
0.000109334
-0.000261437
4.28502e-05
4.00641e-05
-7.66995e-05
-6.17963e-05
-1.0273e-05
-0.000159574
-8.18924e-05
7.3567e-05
-4.22969e-05
9.23162e-06
-1.98812e-05
9.94618e-06
-8.87783e-07
-5.61638e-05
-3.99557e-05
-5.35061e-05
-0.000102719
9.00057e-05
-0.000219845
-0.000120905
-5.9022e-05
4.97604e-05
-3.80763e-05
-1.36702e-05
-2.83017e-06
-8.34798e-05
1.19548e-05
-7.01745e-05
-3.17383e-05
1.34766e-05
5.83422e-05
-0.000137647
-8.99404e-05
0.000151387
1.51157e-05
-6.14137e-06
-0.000129065
3.11773e-05
0.000173844
-0.000137103
4.43449e-05
0.000100966
9.51369e-06
9.34245e-06
4.56322e-05
-4.52996e-05
0.0002318
-1.65908e-05
-9.65686e-05
0.000247102
-6.24572e-05
-9.62123e-05
4.41668e-05
-6.78147e-05
-9.39945e-05
-3.89076e-05
6.94152e-05
5.60168e-05
3.48887e-05
-0.000183194
5.5006e-05
9.55171e-05
2.66585e-05
-3.39593e-05
0.000120549
5.00283e-06
-7.5276e-05
0.000127643
-7.99587e-05
-8.11347e-05
-0.000202427
6.17069e-05
-9.95562e-05
-5.4323e-05
-5.94817e-05
-9.60131e-05
0.000116062
-0.000147444
1.14925e-05
-7.43307e-05
0.000155804
7.66396e-05
-6.99933e-05
7.37108e-05
-2.04375e-05
-8.95967e-05
9.62396e-05
-3.38344e-05
-3.49052e-05
4.17582e-05
0.000162894
3.63595e-05
8.77912e-05
-3.58352e-05
-2.20583e-05
-3.02191e-06
-1.37129e-05
3.04274e-05
5.12844e-05
-1.66398e-05
-6.6419e-05
-0.000106226
-3.4102e-05
-0.000114615
-1.21311e-05
2.69826e-05
0.000152796
4.25639e-05
-6.62485e-05
1.30313e-05
0.000125127
-3.36287e-05
0.000125026
-3.74269e-05
-0.000105816
-9.70289e-05
0.000180479
2.01131e-05
3.31968e-05
4.16909e-05
0.000125363
-0.000130525
0.000146989
3.85051e-05
-9.22034e-05
-5.52763e-06
-2.8895e-05
-7.75097e-05
-0.00016559
-6.21091e-05
8.73234e-05
0.00013541
-5.5455e-05
8.27909e-05
8.54186e-05
0.000115635
-8.62868e-05
4.55808e-05
0.000119126
0.00018409
2.40584e-06
0.000137161
5.34615e-05
5.22614e-05
5.6846e-05
0.000167473
-5.51225e-05
-1.33798e-05
-4.05209e-05
-0.000125639
6.856e-05
-1.32681e-05
3.22424e-05
-2.87497e-05
-4.65668e-05
-8.74827e-05
-7.05923e-05
7.68015e-05
-9.855e-05
4.49253e-05
-7.86617e-05
9.82091e-05
-0.000145106
-0.000182992
0.000104832
-1.31568e-05
-7.5503e-05
0.000210965
-6.38554e-05
8.74363e-05
0.000118602
-0.000142688
0.000153399
0.000188841
-0.000133898
-3.04488e-05
-8.05343e-05
-1.98921e-05
-2.80348e-05
5.00239e-05
-0.000123371
-0.000185927
2.17026e-05
2.22623e-05
-4.22008e-05
8.28363e-05
-0.000114716
-1.43952e-05
-3.40617e-05
-0.00010146
3.65766e-05
-5.14563e-05
0.000108135
-1.38627e-05
-8.48667e-05
1.70884e-05
0.000166329
4.82555e-05
-0.000137476
-0.000130724
-9.48517e-06
4.5335e-05
-0.000128979
5.08635e-05
1.61454e-05
-0.000157478
0.000116752
-5.86523e-05
-9.88622e-06
2.70255e-05
5.98147e-05
5.88682e-05
7.47681e-05
-2.03855e-05
6.78024e-05
-9.19696e-05
-5.69085e-06
-0.000144547
0.00017434
-1.03792e-05
-3.04007e-06
3.54417e-05
7.37595e-05
5.43422e-05
-7.24926e-05
-4.39931e-05
-3.61346e-05
2.63087e-05
0.000149055
6.77111e-05
-0.000108175
2.75206e-07
-0.000102251
0.000191155
-4.92088e-07
2.48824e-05
1.41293e-05
-5.52986e-05
-0.000112945
1.64515e-05
5.999e-05
-0.000104574
-2.01633e-05
-2.06165e-05
-2.06784e-05
2.71756e-05
3.29528e-05
9.95216e-05
-4.56779e-05
-3.40305e-06
3.48249e-05
5.4494e-05
4.12606e-05
0.000162434
-7.5497e-05
-7.04983e-05
-8.71252e-07
0.000148986
8.32421e-05
6.13601e-05
7.60478e-05
-1.61112e-05
-8.15617e-06
0.000102876
4.52762e-05
3.04857e-06
1.02995e-05
9.89577e-05
-6.89172e-05
3.38097e-05
7.08601e-05
-5.00827e-05
-0.00016035
2.85006e-05
-3.94691e-05
0.000187724
0.000159626
2.64982e-05
9.43413e-05
4.62711e-05
5.01354e-06
-5.53345e-06
0.00016653
-0.000108887
6.76442e-05
7.97851e-05
2.64242e-05
-3.33126e-05
-3.69876e-05
0.000154182
-0.000138618
-8.34805e-05
3.13434e-05
1.95636e-06
7.74232e-05
-8.67887e-05
-0.000106185
0.000124944
-3.2715e-06
3.75247e-05
9.61648e-05
-6.26924e-05
0.00019247
1.74507e-07
-0.000103404
-1.4643e-05
-7.02796e-05
0.000126966
-4.42555e-05
-3.12375e-05
-6.08345e-05
0.000185489
6.59493e-06
-2.88459e-05
2.55741e-06
-4.19506e-05
2.88815e-05
-7.87321e-05
-0.000245336
-4.55708e-06
1.4191e-06
-2.96716e-05
-0.000100693
6.97643e-05
9.95678e-05
2.10073e-05
9.20024e-05
0.000134083
6.70739e-06
-3.21709e-05
-1.05822e-05
0.000141856
-7.66044e-05
-3.02681e-05
-9.204e-05
-5.64926e-05
-6.99649e-05
-1.04203e-06
-3.12676e-05
-1.0347e-05
-1.91762e-05
6.47362e-06
-1.19123e-05
1.19001e-05
-0.00012422
-0.000133447
2.95367e-05
2.01784e-05
7.01154e-05
-6.80155e-05
0.000112859
-5.64294e-05
-0.000102792
3.18147e-05
9.65788e-05
0.000142974
-0.00021521
-2.51562e-05
0.000155176
-7.08778e-05
-1.83482e-06
-9.00575e-05
-6.12382e-05
3.0627e-05
-2.73809e-05
0.000121417
-7.09179e-06
-0.000136559
5.4209e-05
-8.18307e-06
-8.82485e-05
-4.20748e-06
6.04576e-05
1.07265e-06
-0.000111191
-8.29691e-05
-0.000135972
-2.61226e-05
7.20014e-05
-0.000131597
2.96029e-05
2.28289e-05
-6.37441e-05
0.00025458
-1.29704e-05
-0.000103429
-5.6698e-05
-0.000126446
-7.45105e-06
9.4973e-05
-0.000134314
2.41234e-05
-7.84071e-05
9.75837e-05
3.62005e-05
9.45166e-05
2.15508e-05
-2.06128e-05
-3.88103e-05
-0.000148646
0.000226774
9.63688e-05
-7.63235e-05
2.8778e-05
8.77603e-05
-8.39324e-05
-2.85241e-05
0.00010019
-0.000145643
7.67792e-05
4.41065e-05
6.33274e-05
3.54645e-05
-4.70191e-05
6.0105e-05
0.000238689
-1.13718e-05
1.32812e-05
4.61283e-05
9.35653e-05
0.000111443
6.89395e-05
4.29254e-05
5.71762e-05
-0.000123357
-2.57513e-05
2.09776e-05
-7.54534e-05
-5.305e-05
3.71749e-06
-4.13262e-05
0.000107548
-7.41162e-05
-8.38639e-05
3.15662e-05
-0.000155529
-4.05964e-06
8.19246e-05
7.88571e-05
8.92091e-06
-0.000158251
0.000104388
6.37081e-05
-9.68603e-05
8.47003e-06
-2.26422e-05
2.02248e-05
-5.80798e-05
-4.53766e-05
-0.000111838
-1.58467e-05
4.66688e-05
8.89634e-06
1.84823e-05
0.000207152
1.02584e-05
3.13814e-05
0.000133192
4.81966e-05
4.80295e-05
4.55589e-05
2.47972e-05
0.000182448
-2.09905e-05
-5.1068e-05
-0.00016566
-1.12365e-05
1.81834e-05
-8.31875e-05
-4.87242e-05
-7.17328e-06
6.01658e-06
-7.74846e-05
6.14963e-05
8.30098e-05
5.09628e-05
-9.22172e-06
-1.73693e-05
4.86057e-06
0.000144273
-9.19844e-05
-0.000114029
-6.52783e-05
-1.09936e-05
8.56707e-05
-5.85453e-07
-1.54502e-05
0.000174422
0.000100694
-6.32091e-05
-0.0001399
1.76432e-05
-7.06055e-05
3.54818e-05
-0.000141505
8.52003e-05
7.95141e-05
-0.000127984
1.78961e-05
4.6322e-05
0.000139066
-4.06976e-05
-0.000219237
1.18926e-05
6.91265e-05
0.000103412
3.0139e-05
1.81207e-05
-8.48223e-05
-2.77938e-05
-3.61355e-05
-4.22501e-05
2.46968e-05
-0.000103875
-0.000121247
-1.83886e-05
-5.68033e-05
-0.000118192
-0.000102746
9.25114e-05
2.27754e-05
1.13467e-05
-0.000100635
-2.48381e-05
-9.26378e-05
3.89394e-05
5.67283e-05
-3.55965e-05
7.58739e-05
0.000112991
2.82427e-05
-6.0635e-05
1.33622e-05
-4.06096e-05
-1.77708e-05
8.73171e-05
-0.000233145
-0.000133022
0.000155851
-4.31323e-05
-1.50558e-05
-9.80066e-06
-1.25056e-05
3.95532e-05
-6.4272e-05
3.49188e-06
-0.000116737
-9.34466e-06
2.47868e-05
7.48532e-05
-0.000201997
-7.66099e-05
5.21203e-05
6.21412e-05
-2.86263e-05
-7.18143e-05
-8.01749e-05
-4.28616e-05
9.60904e-06
-5.67322e-05
-7.19777e-05
-4.84581e-05
1.45551e-05
0.000141873
0.00012703
1.97324e-06
9.00915e-05
5.61428e-05
-0.000165351
3.27245e-05
-6.42667e-05
9.19828e-05
-1.09896e-06
0.000159573
-1.11898e-05
-3.98192e-05
0.000106628
2.95398e-05
0.000145453
-0.000168276
-0.000103097
-5.23587e-05
4.49677e-06
2.28081e-06
6.18853e-05
-3.49612e-05
-0.000110267
8.1986e-05
-8.72054e-05
0.000166318
-0.000134454
4.82152e-05
-8.84768e-06
-3.29805e-06
7.42724e-05
-5.85739e-05
3.09367e-05
5.62635e-07
-9.50582e-05
6.60256e-05
-2.82365e-05
-8.4132e-05
-6.04371e-05
5.38502e-05
0.00025675
-0.000159862
2.50965e-05
3.67748e-05
-2.15394e-05
7.59182e-05
-7.97824e-05
0.000149188
-0.000147422
7.61393e-05
-3.72762e-05
2.41607e-05
-6.29653e-05
-3.29041e-05
1.48161e-05
-4.53114e-05
-8.09515e-05
-7.09496e-05
0.000223434
-8.89181e-05
-7.10958e-05
5.09382e-05
-0.000254145
2.66446e-05
0.000193971
1.43191e-08
6.41408e-05
-9.98835e-05
3.32805e-05
4.92505e-05
4.34159e-05
-0.000144352
7.04248e-05
-1.6971e-06
-0.000104599
-6.99657e-05
-2.57336e-06
3.46662e-06
0.000126864
-8.41729e-05
0.00011235
-7.54278e-06
7.811e-06
-0.000189093
2.34594e-05
-8.62719e-06
-0.000121178
-2.05014e-05
-6.07839e-06
5.29638e-05
-0.000192091
-9.772e-05
-8.93022e-07
-9.43698e-06
-0.000140862
1.41959e-05
0.000150768
-2.41939e-05
-5.047e-05
-0.000102181
-7.32185e-05
4.00085e-05
-8.40151e-05
-2.61993e-06
7.21649e-05
-5.01587e-06
-0.000208037
-5.41108e-05
5.78304e-05
3.01236e-06
-0.000111918
6.54056e-06
-5.46842e-05
-5.0874e-05
-0.000133588
3.31153e-05
-4.74113e-06
-5.78372e-05
1.08753e-05
-4.19095e-05
-7.3305e-05
-5.93817e-05
-6.37663e-05
-7.91915e-05
0.000179464
1.76672e-05
2.41752e-05
4.9012e-05
9.09176e-05
1.51545e-05
2.9835e-05
0.00012313
-3.18807e-05
-5.28049e-05
4.12744e-05
-3.41269e-05
3.48021e-05
5.96383e-05
4.79475e-05
4.51226e-05
-8.75882e-05
-0.000116376
0.000112258
0.000105033
5.79009e-05
-5.89759e-05
-0.000101084
-4.4935e-05
1.35775e-05
-8.0301e-05
-7.24144e-05
-5.80535e-05
-8.03929e-06
8.582e-05
4.42255e-05
1.96766e-05
6.93054e-05
-1.14449e-05
4.66332e-05
0.000114619
6.39143e-05
2.4543e-05
1.20532e-05
-3.64084e-05
0.000183935
-4.00506e-05
-9.58396e-05
-7.97368e-05
-6.42387e-05
0.000156117
-6.36359e-05
-2.02823e-05
4.17326e-06
-4.45124e-05
7.46371e-05
4.88358e-05
-3.63681e-05
-0.000136864
2.26921e-05
8.50556e-05
-0.000120947
5.87201e-05
8.04808e-05
0.000141268
-9.61542e-05
-4.66132e-05
9.01474e-06
9.69367e-06
-7.78128e-05
-0.000100692
-1.29174e-05
-5.87935e-05
0.000103821
-6.09957e-05
8.94499e-05
9.45113e-05
-0.000128505
-4.94942e-05
-4.36889e-05
-7.08308e-05
-0.000152903
8.99584e-05
3.93861e-05
-3.43998e-05
8.36037e-05
-8.62686e-05
1.90383e-05
0.000105029
6.92388e-05
-0.00015256
-1.11228e-05
1.29407e-05
-3.5984e-05
-0.000109607
-9.22452e-06
4.9961e-05
-0.000108295
-2.2226e-05
0.000162948
-3.69202e-05
-8.13974e-05
7.08321e-05
7.32478e-05
-0.000151626
1.86786e-05
-8.27656e-05
0.000149286
0.00020864
-8.35502e-05
0.00020018
-0.000120059
-1.88109e-05
6.65955e-05
2.44031e-05
3.58019e-05
-2.1806e-05
2.20282e-05
9.15932e-06
-1.0189e-05
7.73015e-05
0.000114985
0.000149647
-0.00023387
-7.64147e-05
-7.88827e-05
-9.34931e-05
-2.89036e-05
-6.38498e-05
-1.02562e-05
6.80238e-05
8.09906e-05
-9.7729e-05
-4.7761e-05
2.20705e-05
-9.07271e-06
-7.34444e-05
-2.47919e-05
-5.54186e-05
-0.000158401
-0.000131673
-0.000131401
0.000161567
-3.50317e-06
0.000106311
6.27389e-05
8.723e-05
2.11264e-05
-3.42301e-05
6.97578e-05
-0.000100716
-5.44621e-05
3.5935e-05
0.000133589
-0.000108584
-3.32651e-05
3.54222e-05
1.38133e-05
0.000106503
3.69293e-05
-6.15637e-05
1.42981e-06
3.041e-06
-1.18786e-05
4.29848e-05
-0.000108531
5.92808e-05
-7.51647e-06
-9.04315e-05
0.000141919
-2.30519e-05
6.78888e-06
3.79235e-05
-0.000152062
4.0621e-05
5.02763e-05
0.000112594
0.000128136
-0.000125756
1.05308e-05
-5.09266e-05
2.98412e-05
2.57911e-05
-8.11835e-05
0.0001153
6.59631e-05
6.76943e-05
-0.000130828
-0.00011262
0.000101887
1.27091e-06
4.53308e-05
-8.13747e-05
-5.44187e-05
1.97908e-05
0.000133827
-0.000102773
2.49997e-05
2.97735e-05
-0.000129572
0.000129192
0.000223765
-9.91623e-05
3.28553e-05
-1.16025e-05
-8.31762e-05
-9.07928e-05
0.000253356
5.35445e-05
8.99074e-05
-1.28828e-05
1.56281e-05
-1.35123e-05
-6.94771e-05
0.000116717
6.96396e-07
-0.000128638
9.77187e-05
-3.59085e-05
7.80518e-06
-3.26316e-05
2.09035e-06
-0.000176927
3.63813e-05
8.55343e-05
3.70911e-06
-5.72652e-05
-6.51204e-05
3.48393e-05
7.93121e-05
-2.30516e-05
-9.24059e-05
0.000148317
2.08893e-05
-0.000112436
-1.74914e-06
2.79109e-05
0.000137689
2.49797e-05
9.28805e-05
-7.9181e-05
-3.03595e-05
-2.9176e-05
-9.09553e-05
2.60479e-05
5.77995e-05
-3.75828e-05
-1.97816e-05
0.000156924
1.18945e-05
-4.09654e-05
-4.77931e-06
6.18373e-05
3.51772e-05
-7.29747e-05
2.9454e-05
-4.75408e-05
-0.000199166
-5.49512e-05
0.00011342
1.65845e-05
0.000119959
-4.95459e-05
-5.48704e-05
-4.40069e-05
-0.00013232
-1.10678e-05
-3.26029e-05
2.9519e-05
-6.70103e-05
-5.68e-05
4.42578e-05
0.000101565
-3.75579e-05
6.8852e-05
2.77114e-05
-1.84721e-05
6.67956e-06
2.38251e-05
-5.53911e-05
-4.54463e-05
-0.000216462
-2.11406e-05
-1.8084e-06
-2.24013e-05
-1.20919e-05
0.000100169
-2.95333e-05
-7.851e-05
-5.64097e-05
3.54522e-05
-0.000122102
2.53574e-05
-5.1548e-05
-4.73846e-05
-0.000177943
9.91321e-05
-2.02775e-05
-9.0528e-05
-0.000160802
3.15859e-05
2.08624e-05
0.000123532
2.61999e-05
0.000129311
0.000128507
-0.000103171
0.000114865
-0.000114433
-0.000105036
8.21954e-05
2.43424e-06
-7.25684e-05
7.05034e-05
-7.86395e-05
6.73995e-05
-0.00012797
-0.000100283
-0.000118212
-7.90135e-05
0.000137716
0.000141568
9.92953e-06
7.19066e-05
0.00010033
2.52511e-05
1.4744e-06
8.82401e-05
5.75719e-05
-6.24526e-05
8.51981e-05
-0.000157948
1.81696e-05
-3.88629e-06
4.89351e-05
4.22926e-05
-0.000100306
-1.68721e-06
-1.68709e-05
0.000236001
-3.15239e-05
0.000154999
8.43904e-05
-0.000178591
-0.000125186
8.14858e-05
0.000228193
9.75169e-05
5.02612e-06
-2.93702e-05
-2.13407e-05
-8.04663e-06
0.000111529
1.97557e-07
1.47171e-05
2.26219e-05
-5.05624e-05
-1.86267e-05
-9.56483e-05
1.27167e-05
-6.36932e-06
-4.8373e-05
-0.000162495
-0.000150669
-0.000123185
-0.000130301
-0.000143541
2.76939e-05
-1.19654e-05
2.78478e-05
9.66765e-05
-0.000155889
-2.90859e-05
4.30582e-05
5.52199e-05
5.57831e-05
-7.19576e-05
8.21792e-05
3.18002e-05
-1.61428e-05
0.000118334
-3.50525e-05
6.98173e-05
5.22403e-05
-7.4602e-05
0.000128429
6.87914e-05
5.37094e-05
0.000164081
-6.8103e-06
5.29116e-05
6.07581e-05
0.00010507
-3.67903e-05
6.41252e-05
3.23202e-05
1.73886e-05
-6.4798e-05
3.52543e-05
-5.44684e-06
-5.82708e-05
1.32606e-05
7.89587e-06
3.92029e-06
-6.19176e-05
-0.000115362
0.000189381
-7.03009e-05
3.24491e-05
-1.29221e-05
1.29635e-05
3.50393e-05
-3.84763e-05
-0.000227834
1.54444e-05
6.68492e-05
0.000208984
-0.000137775
-0.000119737
3.37965e-06
-6.67844e-05
5.28112e-05
0.000212002
-5.04099e-05
4.52354e-05
6.2398e-05
6.92601e-06
3.33388e-05
-6.37041e-05
-0.000141852
-8.25962e-05
-2.83279e-05
6.21285e-05
7.06128e-05
-5.41138e-05
7.35447e-05
-7.91077e-05
-5.05355e-05
-4.26946e-05
-7.86115e-05
0.0001346
8.86363e-06
2.62039e-06
-3.53693e-05
-5.94268e-05
3.82783e-05
0.000139264
3.07458e-05
7.9216e-06
-4.54556e-05
9.66461e-05
-7.32993e-05
5.74498e-06
0.000131036
-4.60165e-05
6.88419e-05
1.54726e-05
-8.83697e-05
-5.20656e-05
1.93806e-05
-2.46967e-05
-0.000105775
5.5371e-05
8.18243e-05
-1.16578e-05
7.75491e-05
-7.53812e-05
1.98963e-05
-6.5505e-05
8.65607e-05
-3.59192e-05
3.04583e-05
-5.88951e-05
9.53034e-06
8.25461e-05
7.46213e-05
0.00012271
-5.17642e-05
-0.000140594
0.00019018
9.21101e-06
3.64252e-05
9.16632e-05
-3.47008e-05
4.36616e-05
3.07764e-05
-0.000150937
-8.95243e-05
0.000129958
-3.13126e-05
-7.87965e-05
6.6621e-06
-1.89338e-06
5.4436e-05
-0.00015793
6.44323e-05
4.38886e-06
3.60436e-05
-2.89262e-05
8.6172e-05
-1.9521e-05
0.000125603
-4.93157e-05
-0.000227412
-8.44897e-05
5.98042e-05
9.87018e-05
1.23552e-05
-5.95483e-05
-9.38491e-05
-3.7991e-06
9.86294e-06
2.55556e-05
-2.09049e-05
5.29063e-05
0.000165624
1.71979e-05
-1.62054e-05
8.63129e-05
9.68995e-05
0.00013841
-7.13124e-05
-9.83442e-05
-0.000187773
5.00737e-05
-0.000108282
-4.20373e-05
5.10598e-05
-1.11756e-05
-0.000140329
-4.61563e-05
9.76485e-05
1.93319e-06
0.000108967
-0.000172523
9.25374e-06
-0.000121084
-5.38625e-05
0.000162285
6.1324e-05
-2.99662e-05
7.61806e-05
0.000115906
-6.37939e-05
3.29334e-05
2.14528e-05
-4.1126e-06
5.7527e-05
2.30669e-05
2.59976e-05
-0.000109765
-5.54887e-05
-8.38353e-06
2.87625e-05
9.90403e-05
-4.36297e-05
1.81709e-05
-0.000169497
6.91158e-05
0.00012983
-9.32175e-05
-1.71876e-05
-6.7856e-05
-1.37769e-05
-2.54696e-05
4.15124e-05
2.24676e-05
-9.06688e-05
2.38977e-06
2.23626e-05
-1.01802e-05
-2.06265e-05
8.91828e-05
-1.04995e-06
-7.01814e-05
6.77116e-05
-0.000114378
0.000177749
6.07083e-05
-6.39323e-05
-4.53338e-05
-9.1569e-05
5.09662e-05
0.000144512
3.63775e-06
9.31625e-06
-4.96003e-05
-2.26523e-05
-0.000135984
6.1702e-05
-8.23089e-05
-2.61459e-05
6.40767e-05
-3.31929e-05
3.07765e-05
8.76582e-05
-0.000151892
-5.16763e-05
1.66297e-05
-6.09263e-05
-0.000119047
6.81182e-05
1.12382e-05
-9.24431e-06
-5.5396e-05
0.000118444
-2.72865e-05
-0.000138147
4.6102e-05
4.37279e-06
3.1558e-05
-5.22431e-05
-7.02607e-05
5.66063e-05
0.000132813
0.000165444
0.00012442
5.91397e-05
-9.19702e-05
1.81688e-05
6.40913e-06
8.71541e-05
4.34433e-05
8.68462e-05
-6.83203e-05
2.92052e-05
-3.11069e-05
2.90946e-05
7.03544e-05
-7.91654e-05
0.000121496
1.4635e-05
-3.86849e-05
-5.5384e-05
-9.60237e-05
0.000150603
4.09505e-05
-7.54476e-05
-6.59029e-05
3.99823e-05
-3.86501e-05
0.000112857
-0.000197858
4.93142e-05
-6.38687e-05
-1.77041e-05
-2.65976e-05
-0.000101565
-1.84749e-05
-3.32673e-05
-1.24197e-05
-1.4306e-05
2.1155e-06
-3.65265e-05
2.22863e-05
-5.77045e-05
0.000197708
-0.000151495
-5.89499e-05
0.000137779
2.68316e-05
-9.80289e-05
-0.000124932
3.1143e-05
-1.9144e-05
1.89804e-06
9.94831e-05
0.00023289
7.02442e-05
-0.000154902
-8.7256e-05
0.000162866
4.77803e-06
-3.19141e-06
2.80289e-05
5.15271e-05
2.49968e-05
0.000113019
-0.00010313
6.42869e-06
-6.80697e-05
5.21247e-05
9.98091e-05
3.75336e-05
-1.25123e-05
2.7868e-05
-0.000175121
-3.98161e-05
0.000127756
5.71331e-06
-4.73857e-06
2.42176e-05
-0.000104495
-2.66114e-06
-0.000126257
-6.1329e-05
4.57135e-05
-2.78156e-05
7.88628e-05
0.000187592
0.000142461
-7.18026e-05
3.68711e-05
-7.9971e-05
-9.76785e-05
8.35124e-05
-7.66612e-05
1.73708e-05
3.88211e-05
3.76343e-05
-6.60972e-05
-4.90415e-05
-7.54814e-06
-0.000157611
7.44857e-05
0.000110231
0.000165343
-0.000116038
5.68123e-05
2.02928e-05
-4.26092e-05
4.47263e-05
-3.4778e-05
-3.8984e-05
-7.47686e-05
4.80481e-05
9.04488e-05
-5.58107e-05
-1.13854e-05
3.43565e-06
0.000201404
-5.24537e-05
6.94708e-05
-1.13563e-06
-8.97853e-05
6.21262e-06
-1.40304e-05
-5.95945e-05
3.46326e-05
0.000132578
-3.57158e-05
3.04381e-05
0.000111535
1.88514e-05
-1.74167e-05
-4.32127e-05
-1.18215e-05
-1.3191e-06
2.33713e-05
-2.01708e-05
-7.9371e-05
0.000145506
1.79218e-05
-2.63033e-05
-3.20199e-05
7.61121e-05
-8.72626e-06
-0.000197836
-0.000123453
2.00714e-05
4.62931e-05
0.000133335
-1.32773e-05
2.91375e-05
4.53092e-05
-3.26461e-05
-4.0591e-05
0.00012126
6.09389e-05
1.83126e-05
-6.41076e-05
8.71439e-05
-3.52124e-05
-2.23258e-05
2.69905e-05
-0.000210486
0.000114812
-9.1057e-05
0.00014374
1.79431e-05
1.02354e-05
-2.4706e-05
8.52564e-05
0.000171645
-1.39991e-05
-7.11631e-05
-7.28322e-05
5.84442e-05
5.29919e-05
6.56093e-05
-9.69053e-05
-1.35744e-05
0.000129801
0.000239294
-4.43282e-05
3.97889e-05
-1.95487e-05
9.60256e-05
-3.60284e-05
-0.000116181
-2.88165e-05
-4.16207e-05
0.000108468
7.31414e-06
2.4383e-05
-3.9587e-05
-9.52769e-05
0.000234467
8.88014e-05
5.22875e-05
7.42773e-05
6.16397e-05
-4.00974e-05
-8.55417e-05
-0.000195942
-9.6239e-05
-2.46787e-05
4.10399e-05
7.28228e-05
-1.15088e-05
0.000226807
0.000109815
-0.000132022
-9.46282e-06
7.56362e-05
-8.9485e-06
3.65067e-05
0.000156297
0.000201727
3.54772e-05
0.000154689
-1.7944e-05
9.59341e-05
9.93997e-05
-0.000144887
-0.000179458
-5.57555e-05
-0.000112793
4.62697e-05
9.8038e-06
-3.30923e-05
-6.04565e-05
4.98863e-06
6.31218e-05
-4.55346e-05
8.08996e-05
-4.53433e-05
-5.27857e-05
-3.14519e-06
-3.57056e-05
-9.52999e-06
-6.95037e-05
0.000112653
3.84289e-05
3.97172e-05
0.00011879
0.000150988
-1.5148e-05
-7.94136e-05
9.34897e-06
-0.000194301
9.0492e-06
0.000121528
0.000118377
1.48941e-05
-4.72452e-05
-0.000137434
9.47148e-05
7.65387e-05
2.43282e-05
-5.19558e-05
-9.07071e-05
-7.84027e-05
-0.00013318
0.000166111
0.000142645
-1.2802e-05
-6.76489e-06
6.35242e-05
-0.00016043
6.11539e-05
6.3941e-05
-4.49236e-05
-0.000135077
6.33211e-05
-1.69151e-06
7.03938e-05
-3.51353e-06
2.15794e-05
-9.54929e-05
4.5402e-08
3.93018e-06
-0.000138939
-4.66087e-05
-2.13989e-05
3.82512e-05
4.52857e-05
-5.11387e-05
-4.63856e-05
-3.81477e-05
-3.43005e-05
0.000192354
7.41845e-05
0.000221835
0.000152335
-0.000181402
7.71312e-05
-2.89916e-05
-3.52783e-05
-1.87597e-05
3.99144e-05
7.1595e-05
0.00011
-1.746e-05
4.86122e-05
1.13272e-07
-2.96721e-05
-2.09548e-08
3.6699e-05
7.5239e-05
-6.67825e-05
-0.00012009
0.000114192
-8.33061e-05
0.000195565
-3.68106e-05
-4.92429e-05
-4.45823e-05
-6.72843e-05
-4.47984e-05
5.05158e-05
9.99528e-05
-0.000119873
-7.21816e-05
3.08806e-05
1.09177e-05
-6.43214e-05
-1.27674e-05
0.000136611
2.14311e-05
-8.01784e-05
0.000107603
-1.95228e-06
1.55652e-05
-0.000126493
-4.6882e-05
8.12869e-05
-2.0891e-05
-8.32622e-05
0.000186634
0.000197409
5.88675e-05
-0.000151033
-0.000109854
-0.000144197
-1.88318e-05
-2.3338e-05
9.07425e-05
0.000110765
8.38307e-07
0.000269337
6.35907e-06
-0.000178776
4.8205e-05
7.14441e-07
4.82099e-06
-7.97906e-05
-8.61993e-05
-1.99099e-05
-4.88923e-05
9.4809e-05
-7.22473e-07
0.000105487
-5.55775e-05
-3.23026e-05
-5.79748e-06
7.0036e-05
-2.66408e-05
5.87781e-06
2.30994e-05
-2.69383e-05
-3.54314e-05
0.000121423
-0.00019233
6.66257e-05
5.33483e-05
-3.13584e-05
-0.000112701
3.98422e-05
8.37328e-05
-0.000135248
-0.000129602
-3.15752e-05
-7.25345e-05
9.45916e-05
8.67739e-05
-0.000117805
-4.82253e-05
2.83646e-06
-0.00020758
2.65401e-05
0.000114953
2.77231e-06
-5.15217e-05
9.70062e-05
0.000128563
-5.79398e-05
4.13866e-05
8.48341e-05
-4.58399e-05
-9.13246e-05
0.000140747
2.60649e-05
-9.71523e-05
7.65488e-05
1.62685e-05
-0.000120146
-0.000104043
-4.25779e-05
0.000110973
2.5287e-05
-0.000134327
-6.40894e-05
0.000116879
5.98414e-05
-7.3112e-05
3.84441e-05
-2.63028e-05
-4.34947e-05
-9.02767e-05
2.12615e-05
-6.14577e-05
0.000181006
6.66186e-05
-0.00014922
-9.56724e-06
0.000104835
8.10269e-05
3.17444e-05
-2.58491e-05
-5.59185e-05
1.56058e-05
-4.15965e-05
4.94545e-05
-7.84524e-05
-0.0001203
1.8859e-05
3.40242e-05
-0.000102925
-9.41434e-05
-6.72649e-05
-2.04021e-05
-4.34599e-05
1.14386e-05
7.6998e-05
-0.000202481
-7.01298e-06
5.69589e-05
0.000138873
2.73634e-06
-1.34446e-05
0.000141716
-9.7819e-05
-1.75686e-05
-0.000114249
-4.51761e-06
0.000133411
-1.63738e-05
2.38846e-05
0.000114089
-1.51454e-05
5.78037e-06
-5.89263e-05
0.000106519
-0.000110708
6.32812e-05
0.000123234
-7.25344e-05
-4.84323e-06
4.08352e-05
-9.3549e-06
-0.000105669
-4.55789e-05
0.000124542
-6.00488e-05
-4.19324e-05
-0.000133914
-2.70046e-05
-2.51988e-05
5.45685e-06
-5.03566e-06
-7.6921e-05
6.50506e-06
0.000116326
0.000127373
0.00016673
-1.05564e-05
-0.00020648
0.000182522
7.48385e-05
-2.78914e-05
7.52547e-05
-4.91736e-05
-1.85499e-05
-1.14244e-05
3.40785e-05
-3.84292e-05
-7.33605e-05
8.69252e-05
6.50194e-05
-9.8595e-05
-5.78479e-06
-1.07904e-05
-5.80212e-05
-9.20602e-05
2.76716e-05
-8.15358e-05
-7.98197e-05
2.13587e-05
0.000112225
9.84112e-05
7.53233e-05
-0.000211936
0.00016368
-7.19711e-05
4.48036e-06
-3.96577e-05
5.87143e-05
3.47934e-05
3.47582e-05
2.93546e-05
4.70481e-06
5.54373e-05
-1.48639e-06
-0.000124395
-3.4835e-06
-5.07145e-05
-2.09997e-05
0.000129396
-2.92573e-05
2.09177e-05
-7.0554e-05
-0.000171928
-3.46856e-05
0.000154134
-4.65246e-05
0.000150401
-1.40689e-05
2.78038e-05
-4.51304e-05
9.39495e-06
0.000141182
3.29126e-05
-4.06129e-05
6.58381e-05
3.8759e-05
-2.93374e-05
-3.00345e-05
-5.72298e-06
6.48908e-05
-3.88518e-05
0.000130689
-4.9643e-05
7.59361e-05
-3.69508e-05
9.97796e-06
-6.46466e-05
3.62757e-05
-2.4982e-05
-3.81779e-05
1.75789e-05
-6.3281e-05
-6.81195e-05
7.207e-05
-4.26061e-05
-4.93638e-05
-9.92033e-05
-0.000139118
9.75181e-05
-3.39866e-05
-0.000114887
-0.000112189
4.04845e-05
-2.15918e-05
-4.61723e-05
0.000109451
7.06452e-05
-4.02323e-05
6.59096e-05
-3.00456e-05
4.02903e-05
0.000171771
-0.000140593
-0.000213177
-5.79013e-05
-5.55336e-06
6.44499e-05
-0.000166967
8.32404e-05
7.40779e-05
-5.58095e-06
1.56966e-05
0.000152073
4.79019e-05
2.48018e-05
-1.09859e-05
-6.54358e-05
-9.80824e-05
-5.30051e-05
-2.28533e-05
0.000155693
6.3809e-05
4.59804e-05
-3.64105e-05
-0.000112674
-4.9845e-05
1.40644e-05
6.1309e-06
-2.21177e-05
3.62449e-05
6.27338e-05
2.96994e-05
7.35477e-05
-3.08981e-05
-8.75968e-05
1.02574e-06
0.000234072
-6.07655e-05
-8.99271e-05
4.31336e-05
9.36022e-05
4.04281e-05
-5.699e-06
-7.08202e-05
-1.62121e-05
-8.73024e-05
-9.12341e-05
7.18259e-06
-2.21118e-05