# vtk DataFile Version 1.0
Net Charge Density
ASCII
DATASET STRUCTURED_POINTS
DIMENSIONS 256 128 1
ORIGIN 0 0 0
SPACING 0.15625 0.15625 1
POINT_DATA 32768
SCALARS rhonet float
LOOKUP_TABLE default
-8.89964e-05
-0.00016443
6.73245e-05
0.000180924
3.86289e-06
0.000191472
3.31746e-05
-3.29301e-05
0.000211425
0.00020405
2.30237e-05
0.000279595
0.000127751
-0.000183836
-0.000216214
0.000243326
0.000142679
-9.87002e-05
-2.87002e-05
2.38952e-05
4.87652e-06
0.000126141
-8.77728e-05
5.35581e-05
9.73924e-05
2.47746e-05
7.28203e-05
7.33132e-05
0.000266093
4.4556e-05
-0.000187995
-0.000141228
0.00013852
0.00019782
4.20047e-05
0.000104592
0.000146124
-7.05899e-05
3.89592e-05
2.232e-05
0.000178941
0.00013508
8.85108e-05
0.000102748
0.000125256
6.33765e-06
2.51118e-05
8.20985e-05
5.3151e-05
0.000119896
0.000161602
-1.1104e-05
0.00015061
0.000179719
-9.1678e-05
-3.29586e-05
-3.99989e-05
0.000187686
0.000135206
0.000108327
-0.000173156
0.000276284
0.000165612
-3.8438e-05
-0.000121112
5.01914e-05
-8.66071e-05
0.00015755
1.5198e-05
-7.60976e-05
-6.64494e-05
-0.000151567
-3.4168e-05
0.000301609
7.66139e-05
-4.76976e-05
6.83875e-05
0.000145776
6.34149e-05
1.53662e-05
-0.000111346
-6.43476e-05
0.000307742
0.000107896
0.000156532
0.000151515
0.00018837
-0.000153581
0.000203114
0.000314539
8.47194e-05
-5.6747e-05
3.65078e-06
4.219e-05
-1.17713e-05
0.000185573
-6.01253e-05
9.2515e-05
-0.000105055
0.000513904
0.00018112
-4.06469e-05
0.000103039
-1.57753e-05
1.81863e-05
0.000185247
1.56633e-05
-3.30393e-05
3.95835e-05
-5.65073e-05
9.67321e-05
0.000135004
-7.10147e-05
-0.000116246
-0.000293087
-1.20507e-05
0.000196575
0.000161801
1.39732e-05
-0.000188641
5.7463e-05
1.23903e-05
6.46164e-05
4.70171e-05
1.39865e-05
-2.69527e-05
8.53457e-05
2.44343e-05
0.00018368
2.48261e-05
3.65495e-05
0.000122553
9.48426e-05
-3.01063e-05
9.04195e-05
5.78716e-05
0.000279149
0.000120272
0.000106484
-0.000217122
-4.58118e-06
6.54797e-05
-4.92658e-06
4.93007e-05
-3.99717e-05
0.00010235
0.00016881
-3.91197e-05
3.76487e-05
0.000252592
-8.82365e-05
-4.8202e-05
0.000177523
0.000274355
0.000128818
6.23011e-05
0.000135928
8.18388e-06
4.77405e-05
6.06263e-05
0.000130789
0.000107803
-8.37162e-05
9.65769e-05
-5.18437e-05
-0.000102245
0.000160799
0.000218389
0.000229293
4.46856e-05
-5.02178e-05
-2.03331e-06
-6.93207e-06
-3.22649e-05
9.88856e-05
0.000118852
0.000188594
-3.82811e-05
-0.000114186
9.30812e-05
0.000170247
0.000170585
-5.9947e-05
-0.000114894
3.01121e-05
0.000124835
0.000147015
0.000125633
0.000105981
0.000260402
0.000187681
0.000105557
7.29121e-05
-8.07225e-05
-0.000155445
0.000304989
0.000208996
3.3515e-05
0.000190698
6.13392e-06
7.67177e-06
1.51945e-05
0.000192278
8.82994e-05
-0.000104467
0.00014671
-5.74146e-05
-8.37957e-06
-8.24679e-05
0.000302362
-2.5673e-05
-0.00012002
0.000139211
0.000212545
-6.37444e-06
-5.47462e-05
3.51253e-05
5.77911e-05
4.46553e-05
0.000108325
-9.93182e-05
-0.000142599
0.000304249
8.57086e-05
-0.000139695
0.000208727
-8.71237e-05
6.99725e-05
-0.00020923
3.65509e-05
0.000211047
-0.000121397
-8.78274e-05
0.000243595
0.000104742
7.16869e-05
0.000175832
-8.41694e-05
0.000117093
0.000292926
3.00534e-05
-0.000198833
0.000113081
8.61071e-05
0.000117134
0.000126007
4.07924e-05
2.43263e-05
0.000117619
-7.49785e-06
6.64268e-05
-0.0001827
-1.10206e-05
-0.000116789
-5.03098e-05
0.000113211
9.38515e-05
7.11088e-06
-1.07265e-06
-0.000114283
1.30754e-05
-9.59646e-05
-0.00018783
-1.47216e-05
0.000141969
-0.000105542
-2.1177e-05
0.000159347
-6.05981e-05
-0.000104908
-0.000191295
-3.15246e-05
2.6787e-05
-8.83365e-05
2.81917e-05
6.03008e-05
-2.11117e-05
-0.000153984
-6.70971e-06
-0.000122243
-5.28991e-05
-0.000213783
8.63421e-05
2.43844e-05
1.32958e-06
-1.46832e-05
-4.76749e-05
0.000114567
-3.24089e-05
-5.61238e-06
-1.98616e-05
-3.69215e-05
-3.4828e-06
-0.000116265
-5.25551e-05
-1.27126e-06
-2.64917e-05
-0.000104853
-3.60254e-05
8.13334e-05
-0.000105781
-0.000144953
7.5291e-05
4.11213e-05
-2.63744e-05
3.98705e-05
-9.31578e-05
4.86264e-05
8.56118e-07
4.31878e-06
-0.000119127
-7.30148e-05
6.05755e-05
2.74989e-05
-0.000101008
6.03886e-05
-2.35746e-05
-0.000135273
-4.44672e-06
1.76306e-05
-0.000143069
5.91769e-05
-6.20354e-06
4.06073e-05
8.06639e-05
-7.99194e-05
3.6455e-05
-5.82089e-05
-9.3237e-06
5.90802e-05
4.19957e-05
3.69132e-05
-4.19618e-05
-5.43676e-05
3.41021e-05
-4.67337e-05
-0.0001537
-6.71796e-05
6.00312e-05
-4.6812e-05
-3.43904e-05
-8.824e-05
4.55752e-05
-0.000176053
1.12818e-05
-0.00015407
-0.000127912
-9.47628e-05
-6.21467e-05
-4.80891e-05
5.24878e-05
-3.3679e-06
-0.000122984
4.3098e-05
-0.000154295
6.54003e-05
-0.00010901
-7.15225e-05
-5.46533e-05
0.000123682
-2.69085e-05
3.08175e-05
-0.000163153
0.000118408
-4.62125e-05
-0.000235137
-5.79354e-05
-7.17839e-05
-0.000163478
5.96765e-05
1.61468e-05
-7.24099e-05
2.98857e-05
-4.80519e-05
-4.58631e-05
-7.19617e-05
-3.38637e-05
-0.000109087
7.39484e-05
9.90361e-05
3.75016e-05
8.90731e-05
1.56956e-05
-6.02789e-05
2.84286e-05
-7.58179e-05
-6.37147e-05
0.000168836
-6.8859e-05
-0.000162257
2.27819e-05
1.59442e-06
-7.4554e-05
-0.000121427
-1.77685e-06
-0.000190662
0.00010786
0.000110056
-2.80039e-05
-1.88074e-05
-0.000179983
-8.35262e-05
9.67795e-05
8.11357e-06
6.51628e-05
0.000115119
-8.75528e-05
-5.66705e-05
4.48846e-05
-0.000137129
-9.15065e-05
-0.000117078
7.7782e-05
-6.16321e-05
-7.80416e-05
-4.3861e-05
6.10384e-05
-0.000105036
5.42322e-05
3.28158e-05
8.62766e-05
-5.37978e-05
-4.06349e-05
1.56843e-05
-4.02811e-05
-0.000211141
2.38115e-05
0.000203273
-1.50737e-05
4.13631e-05
-8.679e-05
-6.52752e-05
3.8904e-05
-0.000102638
1.51224e-05
-4.97354e-05
-2.7699e-05
2.26528e-05
-3.52252e-05
-0.000176033
-0.000125343
-3.131e-05
-3.66126e-07
-0.000170566
-4.75526e-05
-5.78198e-05
-0.000183783
-2.11978e-05
5.88741e-05
5.74125e-06
-3.58105e-05
-5.21936e-06
-8.06734e-05
-0.000193738
-0.000104422
-3.91726e-05
4.23503e-05
-9.052e-05
-7.62012e-05
-8.52812e-06
0.000146161
-0.000152343
-5.96847e-05
9.52001e-05
-0.000116926
9.23368e-05
-9.78986e-05
-1.47185e-05
0.000151847
2.37792e-05
-7.93705e-05
-2.82909e-05
-1.9288e-05
-2.44336e-05
-0.000142313
0.000105529
4.18114e-05
1.36644e-05
-1.15989e-05
-2.04691e-05
-2.06288e-07
-1.97634e-05
2.11212e-05
0.000109334
-0.000261437
4.28505e-05
4.00641e-05
-7.66997e-05
-6.17964e-05
-1.02728e-05
-0.000159574
-8.18924e-05
7.35668e-05
-4.22969e-05
9.23127e-06
-1.98813e-05
9.94618e-06
-8.8755e-07
-5.61636e-05
-3.99556e-05
-5.35061e-05
-0.000102719
9.00057e-05
-0.000219845
-0.000120905
-5.90221e-05
4.97604e-05
-3.80762e-05
-1.36704e-05
-2.83029e-06
-8.34798e-05
1.19547e-05
-7.01746e-05
-3.17382e-05
1.34767e-05
5.83422e-05
-0.000137647
-8.99404e-05
0.000151387
1.51158e-05
-6.14137e-06
-0.000129065
3.11771e-05
0.000173844
-0.000137103
4.43449e-05
0.000100966
9.51369e-06
9.34256e-06
4.56322e-05
-4.52995e-05
0.0002318
-1.65908e-05
-9.65686e-05
0.000247102
-6.24572e-05
-9.62123e-05
4.41665e-05
-6.78146e-05
-9.39945e-05
-3.89076e-05
6.94151e-05
5.6017e-05
3.48887e-05
-0.000183194
5.5006e-05
9.55171e-05
2.66584e-05
-3.39593e-05
0.000120549
5.00295e-06
-7.52761e-05
0.000127643
-7.99587e-05
-8.11348e-05
-0.000202426
6.17068e-05
-9.95562e-05
-5.4323e-05
-5.94817e-05
-9.6013e-05
0.000116062
-0.000147444
1.14925e-05
-7.43307e-05
0.000155804
7.66395e-05
-6.99933e-05
7.37107e-05
-2.04374e-05
-8.95967e-05
9.62395e-05
-3.38344e-05
-3.4905e-05
4.17582e-05
0.000162894
3.63595e-05
8.77914e-05
-3.58353e-05
-2.20583e-05
-3.02214e-06
-1.3713e-05
3.04274e-05
5.12844e-05
-1.66398e-05
-6.64191e-05
-0.000106226
-3.41021e-05
-0.000114615
-1.21308e-05
2.69826e-05
0.000152796
4.25638e-05
-6.62487e-05
1.30313e-05
0.000125127
-3.36289e-05
0.000125026
-3.74271e-05
-0.000105816
-9.70288e-05
0.000180479
2.01131e-05
3.31968e-05
4.1691e-05
0.000125363
-0.000130525
0.000146989
3.85051e-05
-9.22033e-05
-5.52763e-06
-2.88952e-05
-7.75096e-05
-0.00016559
-6.21091e-05
8.73235e-05
0.00013541
-5.54551e-05
8.27909e-05
8.54186e-05
0.000115635
-8.62868e-05
4.5581e-05
0.000119126
0.00018409
2.40584e-06
0.000137161
5.34615e-05
5.22614e-05
5.68458e-05
0.000167473
-5.51228e-05
-1.33796e-05
-4.05209e-05
-0.000125639
6.856e-05
-1.32681e-05
3.22424e-05
-2.87497e-05
-4.65666e-05
-8.74827e-05
-7.05924e-05
7.68013e-05
-9.85502e-05
4.49251e-05
-7.86618e-05
9.82091e-05
-0.000145106
-0.000182992
0.000104832
-1.31568e-05
-7.5503e-05
0.000210965
-6.38557e-05
8.74363e-05
0.000118602
-0.000142688
0.000153399
0.000188841
-0.000133898
-3.04487e-05
-8.05345e-05
-1.9892e-05
-2.80348e-05
5.00239e-05
-0.000123371
-0.000185927
2.17025e-05
2.22626e-05
-4.22008e-05
8.28359e-05
-0.000114716
-1.4395e-05
-3.40617e-05
-0.000101461
3.65766e-05
-5.14564e-05
0.000108135
-1.38626e-05
-8.48667e-05
1.70884e-05
0.000166329
4.82555e-05
-0.000137476
-0.000130724
-9.48517e-06
4.53349e-05
-0.000128979
5.08635e-05
1.61455e-05
-0.000157478
0.000116752
-5.86524e-05
-9.88622e-06
2.70255e-05
5.98144e-05
5.88682e-05
7.47679e-05
-2.03855e-05
6.78026e-05
-9.19696e-05
-5.69085e-06
-0.000144547
0.00017434
-1.03792e-05
-3.03995e-06
3.54417e-05
7.37596e-05
5.43421e-05
-7.24928e-05
-4.39934e-05
-3.61345e-05
2.63088e-05
0.000149055
6.77111e-05
-0.000108175
2.75206e-07
-0.000102251
0.000191155
-4.92204e-07
2.48824e-05
1.41293e-05
-5.52984e-05
-0.000112945
1.64516e-05
5.999e-05
-0.000104575
-2.01631e-05
-2.06163e-05
-2.06784e-05
2.71754e-05
3.29529e-05
9.95216e-05
-4.56779e-05
-3.40305e-06
3.48249e-05
5.4494e-05
4.12606e-05
0.000162434
-7.5497e-05
-7.04982e-05
-8.71019e-07
0.000148986
8.32421e-05
6.13601e-05
7.60478e-05
-1.61112e-05
-8.15617e-06
0.000102876
4.52764e-05
3.04845e-06
1.02995e-05
9.89577e-05
-6.89171e-05
3.38097e-05
7.08601e-05
-5.00826e-05
-0.000160351
2.85004e-05
-3.94693e-05
0.000187724
0.000159626
2.64983e-05
9.43412e-05
4.62711e-05
5.01354e-06
-5.53345e-06
0.00016653
-0.000108887
6.76441e-05
7.9785e-05
2.64242e-05
-3.33126e-05
-3.69876e-05
0.000154182
-0.000138618
-8.34805e-05
3.13434e-05
1.95636e-06
7.74232e-05
-8.67888e-05
-0.000106185
0.000124944
-3.2715e-06
3.75248e-05
9.6165e-05
-6.26924e-05
0.00019247
1.74274e-07
-0.000103404
-1.46431e-05
-7.02796e-05
0.000126966
-4.42558e-05
-3.12376e-05
-6.08345e-05
0.000185488
6.59481e-06
-2.8846e-05
2.55741e-06
-4.19505e-05
2.88815e-05
-7.87321e-05
-0.000245336
-4.55708e-06
1.41922e-06
-2.96716e-05
-0.000100693
6.97644e-05
9.9568e-05
2.10074e-05
9.20024e-05
0.000134083
6.70739e-06
-3.21707e-05
-1.05822e-05
0.000141856
-7.66044e-05
-3.02681e-05
-9.204e-05
-5.64926e-05
-6.99649e-05
-1.04203e-06
-3.12676e-05
-1.0347e-05
-1.9176e-05
6.47362e-06
-1.19123e-05
1.19e-05
-0.000124219
-0.000133447
2.95365e-05
2.01784e-05
7.01154e-05
-6.80155e-05
0.000112859
-5.64294e-05
-0.000102792
3.18147e-05
9.65788e-05
0.000142974
-0.00021521
-2.51561e-05
0.000155176
-7.08778e-05
-1.83482e-06
-9.00576e-05
-6.12382e-05
3.0627e-05
-2.73808e-05
0.000121417
-7.09156e-06
-0.000136559
5.42091e-05
-8.18307e-06
-8.82485e-05
-4.20748e-06
6.04576e-05
1.07265e-06
-0.000111191
-8.29693e-05
-0.000135972
-2.61227e-05
7.20012e-05
-0.000131597
2.9603e-05
2.28292e-05
-6.37441e-05
0.00025458
-1.29703e-05
-0.000103429
-5.66979e-05
-0.000126446
-7.45105e-06
9.4973e-05
-0.000134313
2.41232e-05
-7.84071e-05
9.75835e-05
3.62005e-05
9.45166e-05
2.15508e-05
-2.06128e-05
-3.88103e-05
-0.000148646
0.000226774
9.63688e-05
-7.63235e-05
2.87781e-05
8.77602e-05
-8.39323e-05
-2.85241e-05
0.00010019
-0.000145643
7.67792e-05
4.41065e-05
6.33273e-05
3.54644e-05
-4.70191e-05
6.0105e-05
0.000238689
-1.13719e-05
1.32814e-05
4.61283e-05
9.35653e-05
0.000111443
6.89394e-05
4.29255e-05
5.71762e-05
-0.000123357
-2.57513e-05
2.09775e-05
-7.54538e-05
-5.30499e-05
3.71737e-06
-4.1326e-05
0.000107548
-7.41163e-05
-8.3864e-05
3.15661e-05
-0.000155529
-4.05964e-06
8.19246e-05
7.88571e-05
8.92091e-06
-0.000158251
0.000104388
6.37081e-05
-9.68603e-05
8.46991e-06
-2.26423e-05
2.02247e-05
-5.80798e-05
-4.53766e-05
-0.000111838
-1.58467e-05
4.66688e-05
8.89634e-06
1.84822e-05
0.000207152
1.02584e-05
3.13814e-05
0.000133192
4.81966e-05
4.80295e-05
4.55589e-05
2.47973e-05
0.000182448
-2.09904e-05
-5.10683e-05
-0.00016566
-1.12365e-05
1.81833e-05
-8.31875e-05
-4.8724e-05
-7.1734e-06
6.01681e-06
-7.74846e-05
6.14964e-05
8.30098e-05
5.09631e-05
-9.22172e-06
-1.73693e-05
4.86057e-06
0.000144273
-9.19844e-05
-0.000114029
-6.52783e-05
-1.09936e-05
8.56706e-05
-5.85336e-07
-1.54502e-05
0.000174422
0.000100694
-6.32089e-05
-0.0001399
1.76432e-05
-7.06055e-05
3.54818e-05
-0.000141505
8.52004e-05
7.95141e-05
-0.000127984
1.78959e-05
4.6322e-05
0.000139067
-4.06979e-05
-0.000219237
1.18926e-05
6.91265e-05
0.000103412
3.0139e-05
1.81207e-05
-8.48224e-05
-2.77938e-05
-3.61355e-05
-4.225e-05
2.46968e-05
-0.000103875
-0.000121247
-1.83885e-05
-5.68035e-05
-0.000118192
-0.000102746
9.25114e-05
2.27753e-05
1.13467e-05
-0.000100635
-2.48381e-05
-9.26376e-05
3.89395e-05
5.67283e-05
-3.55967e-05
7.58738e-05
0.000112991
2.82426e-05
-6.06352e-05
1.33622e-05
-4.06095e-05
-1.77708e-05
8.73171e-05
-0.000233145
-0.000133022
0.000155851
-4.31325e-05
-1.50558e-05
-9.80066e-06
-1.25056e-05
3.95532e-05
-6.4272e-05
3.49211e-06
-0.000116737
-9.34466e-06
2.47868e-05
7.48532e-05
-0.000201997
-7.66101e-05
5.21203e-05
6.21413e-05
-2.86263e-05
-7.18145e-05
-8.0175e-05
-4.28616e-05
9.60904e-06
-5.67324e-05
-7.19777e-05
-4.84581e-05
1.45551e-05
0.000141873
0.00012703
1.97312e-06
9.00915e-05
5.61429e-05
-0.000165351
3.27245e-05
-6.42666e-05
9.19828e-05
-1.09896e-06
0.000159573
-1.11898e-05
-3.98193e-05
0.000106628
2.95399e-05
0.000145453
-0.000168277
-0.000103097
-5.23587e-05
4.49666e-06
2.28081e-06
6.18853e-05
-3.49612e-05
-0.000110267
8.19862e-05
-8.72053e-05
0.000166318
-0.000134454
4.82153e-05
-8.84756e-06
-3.29793e-06
7.42724e-05
-5.85738e-05
3.09367e-05
5.62635e-07
-9.50581e-05
6.60256e-05
-2.82367e-05
-8.4132e-05
-6.0437e-05
5.38502e-05
0.00025675
-0.000159862
2.50966e-05
3.67748e-05
-2.15394e-05
7.59182e-05
-7.97823e-05
0.000149188
-0.000147422
7.61393e-05
-3.7276e-05
2.41606e-05
-6.29653e-05
-3.29043e-05
1.48161e-05
-4.53114e-05
-8.09514e-05
-7.09496e-05
0.000223434
-8.89183e-05
-7.10958e-05
5.09382e-05
-0.000254145
2.66446e-05
0.000193971
1.44355e-08
6.41407e-05
-9.98836e-05
3.32805e-05
4.92504e-05
4.34159e-05
-0.000144352
7.04248e-05
-1.6971e-06
-0.0001046
-6.99656e-05
-2.57336e-06
3.46673e-06
0.000126864
-8.41727e-05
0.00011235
-7.54278e-06
7.811e-06
-0.000189092
2.34594e-05
-8.62719e-06
-0.000121178
-2.05014e-05
-6.07851e-06
5.29638e-05
-0.000192091
-9.77201e-05
-8.92906e-07
-9.43686e-06
-0.000140861
1.41958e-05
0.000150768
-2.4194e-05
-5.04701e-05
-0.000102181
-7.32186e-05
4.00083e-05
-8.40151e-05
-2.61981e-06
7.21649e-05
-5.01587e-06
-0.000208037
-5.4111e-05
5.78305e-05
3.01236e-06
-0.000111918
6.54056e-06
-5.4684e-05
-5.0874e-05
-0.000133588
3.31153e-05
-4.74113e-06
-5.78372e-05
1.08753e-05
-4.19097e-05
-7.3305e-05
-5.93817e-05
-6.37663e-05
-7.91915e-05
0.000179464
1.76671e-05
2.41752e-05
4.9012e-05
9.09178e-05
1.51545e-05
2.98349e-05
0.00012313
-3.18808e-05
-5.28049e-05
4.12741e-05
-3.41269e-05
3.48021e-05
5.96385e-05
4.79475e-05
4.51226e-05
-8.75882e-05
-0.000116376
0.000112258
0.000105033
5.79008e-05
-5.89757e-05
-0.000101084
-4.4935e-05
1.35776e-05
-8.0301e-05
-7.24144e-05
-5.80535e-05
-8.03941e-06
8.582e-05
4.42255e-05
1.96768e-05
6.93053e-05
-1.14448e-05
4.66332e-05
0.000114619
6.39141e-05
2.45431e-05
1.20532e-05
-3.64084e-05
0.000183935
-4.00506e-05
-9.58396e-05
-7.97369e-05
-6.42387e-05
0.000156117
-6.36359e-05
-2.02822e-05
4.17326e-06
-4.45124e-05
7.46371e-05
4.88358e-05
-3.6368e-05
-0.000136864
2.2692e-05
8.50558e-05
-0.000120947
5.872e-05
8.04808e-05
0.000141268
-9.61542e-05
-4.6613e-05
9.0152e-06
9.69379e-06
-7.78129e-05
-0.000100692
-1.29174e-05
-5.87935e-05
0.000103821
-6.09956e-05
8.94499e-05
9.45113e-05
-0.000128505
-4.94942e-05
-4.3689e-05
-7.08308e-05
-0.000152903
8.99584e-05
3.93861e-05
-3.43998e-05
8.36037e-05
-8.62686e-05
1.90382e-05
0.000105029
6.92388e-05
-0.00015256
-1.11228e-05
1.2941e-05
-3.5984e-05
-0.000109606
-9.2244e-06
4.99611e-05
-0.000108295
-2.2226e-05
0.000162948
-3.69204e-05
-8.13974e-05
7.08321e-05
7.32476e-05
-0.000151626
1.86784e-05
-8.27656e-05
0.000149286
0.000208639
-8.35501e-05
0.00020018
-0.000120059
-1.88109e-05
6.65954e-05
2.4403e-05
3.58019e-05
-2.1806e-05
2.20283e-05
9.15932e-06
-1.01891e-05
7.73015e-05
0.000114985
0.000149647
-0.00023387
-7.64147e-05
-7.88826e-05
-9.34927e-05
-2.89036e-05
-6.385e-05
-1.02562e-05
6.80237e-05
8.09908e-05
-9.7729e-05
-4.77609e-05
2.20705e-05
-9.0726e-06
-7.34444e-05
-2.47918e-05
-5.54188e-05
-0.000158401
-0.000131673
-0.000131401
0.000161567
-3.50317e-06
0.000106311
6.27388e-05
8.72298e-05
2.11264e-05
-3.42301e-05
6.97579e-05
-0.000100716
-5.44622e-05
3.59351e-05
0.000133589
-0.000108584
-3.32651e-05
3.54222e-05
1.38134e-05
0.000106503
3.69292e-05
-6.15639e-05
1.43005e-06
3.04088e-06
-1.18786e-05
4.29848e-05
-0.000108531
5.92808e-05
-7.51636e-06
-9.04318e-05
0.000141919
-2.30517e-05
6.78888e-06
3.79231e-05
-0.000152063
4.0621e-05
5.02758e-05
0.000112594
0.000128136
-0.000125756
1.0531e-05
-5.09266e-05
2.98412e-05
2.57911e-05
-8.11836e-05
0.0001153
6.5963e-05
6.76946e-05
-0.000130828
-0.00011262
0.000101887
1.27091e-06
4.5331e-05
-8.13745e-05
-5.44186e-05
1.97908e-05
0.000133827
-0.000102773
2.49997e-05
2.97735e-05
-0.000129572
0.000129192
0.000223765
-9.91622e-05
3.2855e-05
-1.16026e-05
-8.31763e-05
-9.07928e-05
0.000253356
5.35445e-05
8.99076e-05
-1.28826e-05
1.56281e-05
-1.35123e-05
-6.9477e-05
0.000116717
6.96513e-07
-0.000128638
9.7719e-05
-3.59085e-05
7.80518e-06
-3.26316e-05
2.09035e-06
-0.000176927
3.63814e-05
8.55342e-05
3.70946e-06
-5.72652e-05
-6.51204e-05
3.48394e-05
7.9312e-05
-2.30516e-05
-9.24059e-05
0.000148317
2.08892e-05
-0.000112436
-1.74914e-06
2.7911e-05
0.000137689
2.49797e-05
9.28803e-05
-7.91812e-05
-3.03595e-05
-2.9176e-05
-9.09553e-05
2.60479e-05
5.77995e-05
-3.75831e-05
-1.97816e-05
0.000156924
1.18946e-05
-4.09654e-05
-4.77943e-06
6.18374e-05
3.5177e-05
-7.29747e-05
2.9454e-05
-4.75408e-05
-0.000199166
-5.49513e-05
0.00011342
1.65848e-05
0.000119959
-4.9546e-05
-5.48704e-05
-4.40069e-05
-0.00013232
-1.10681e-05
-3.26029e-05
2.9519e-05
-6.70101e-05
-5.68e-05
4.42578e-05
0.000101565
-3.75579e-05
6.88521e-05
2.77114e-05
-1.8472e-05
6.67979e-06
2.38254e-05
-5.53911e-05
-4.54464e-05
-0.000216462
-2.11406e-05
-1.80851e-06
-2.24013e-05
-1.20921e-05
0.000100169
-2.95333e-05
-7.85101e-05
-5.64096e-05
3.54522e-05
-0.000122102
2.53572e-05
-5.15482e-05
-4.73845e-05
-0.000177943
9.9132e-05
-2.02773e-05
-9.0528e-05
-0.000160802
3.15858e-05
2.08624e-05
0.000123532
2.61999e-05
0.000129311
0.000128507
-0.000103172
0.000114865
-0.000114433
-0.000105036
8.21954e-05
2.43436e-06
-7.25682e-05
7.05034e-05
-7.86395e-05
6.73993e-05
-0.00012797
-0.000100283
-0.000118212
-7.90134e-05
0.000137716
0.000141568
9.92976e-06
7.19066e-05
0.00010033
2.52509e-05
1.47428e-06
8.824e-05
5.75719e-05
-6.24526e-05
8.51981e-05
-0.000157948
1.81696e-05
-3.88618e-06
4.89351e-05
4.22926e-05
-0.000100306
-1.68721e-06
-1.68709e-05
0.000236001
-3.15239e-05
0.000154999
8.43906e-05
-0.000178591
-0.000125186
8.14856e-05
0.000228193
9.75167e-05
5.02635e-06
-2.93702e-05
-2.13408e-05
-8.04663e-06
0.000111529
1.9779e-07
1.4717e-05
2.26222e-05
-5.05627e-05
-1.86267e-05
-9.56483e-05
1.27167e-05
-6.36932e-06
-4.83729e-05
-0.000162495
-0.000150669
-0.000123185
-0.000130301
-0.000143541
2.76938e-05
-1.19655e-05
2.78476e-05
9.66763e-05
-0.000155889
-2.90859e-05
4.30582e-05
5.52199e-05
5.57831e-05
-7.19577e-05
8.21792e-05
3.18001e-05
-1.61428e-05
0.000118334
-3.50527e-05
6.98173e-05
5.22403e-05
-7.46017e-05
0.000128429
6.87913e-05
5.37096e-05
0.000164081
-6.8103e-06
5.29115e-05
6.07581e-05
0.00010507
-3.679e-05
6.41253e-05
3.23199e-05
1.73888e-05
-6.47982e-05
3.52541e-05
-5.44684e-06
-5.82706e-05
1.32606e-05
7.89622e-06
3.92029e-06
-6.19175e-05
-0.000115362
0.000189381
-7.03009e-05
3.2449e-05
-1.2922e-05
1.29635e-05
3.50394e-05
-3.84762e-05
-0.000227834
1.54445e-05
6.68492e-05
0.000208985
-0.000137775
-0.000119737
3.37965e-06
-6.67846e-05
5.28113e-05
0.000212002
-5.04099e-05
4.52354e-05
6.23979e-05
6.92601e-06
3.33388e-05
-6.37039e-05
-0.000141853
-8.25963e-05
-2.83279e-05
6.21285e-05
7.06126e-05
-5.41139e-05
7.35447e-05
-7.91077e-05
-5.05354e-05
-4.26946e-05
-7.86115e-05
0.0001346
8.86386e-06
2.62074e-06
-3.53692e-05
-5.9427e-05
3.82784e-05
0.000139264
3.07455e-05
7.92195e-06
-4.54556e-05
9.66461e-05
-7.32992e-05
5.74486e-06
0.000131036
-4.60164e-05
6.88419e-05
1.54726e-05
-8.83697e-05
-5.20656e-05
1.93809e-05
-2.46968e-05
-0.000105775
5.53711e-05
8.18241e-05
-1.16578e-05
7.75491e-05
-7.53812e-05
1.98963e-05
-6.5505e-05
8.65606e-05
-3.59192e-05
3.04583e-05
-5.8895e-05
9.53022e-06
8.25461e-05
7.46213e-05
0.00012271
-5.17641e-05
-0.000140594
0.00019018
9.21101e-06
3.64254e-05
9.16631e-05
-3.47008e-05
4.36616e-05
3.07764e-05
-0.000150937
-8.95243e-05
0.000129958
-3.13125e-05
-7.87966e-05
6.6621e-06
-1.89361e-06
5.44357e-05
-0.00015793
6.44324e-05
4.38862e-06
3.60436e-05
-2.89263e-05
8.61718e-05
-1.9521e-05
0.000125604
-4.93159e-05
-0.000227412
-8.44897e-05
5.98042e-05
9.87018e-05
1.2355e-05
-5.95481e-05
-9.38491e-05
-3.79898e-06
9.86294e-06
2.55557e-05
-2.09049e-05
5.29063e-05
0.000165624
1.71977e-05
-1.62056e-05
8.63129e-05
9.68997e-05
0.00013841
-7.13123e-05
-9.83442e-05
-0.000187773
5.00738e-05
-0.000108282
-4.20375e-05
5.10599e-05
-1.11756e-05
-0.000140329
-4.61563e-05
9.76486e-05
1.93319e-06
0.000108967
-0.000172523
9.25385e-06
-0.000121085
-5.38625e-05
0.000162285
6.1324e-05
-2.99662e-05
7.61806e-05
0.000115906
-6.37939e-05
3.29333e-05
2.14528e-05
-4.1126e-06
5.7527e-05
2.3067e-05
2.59975e-05
-0.000109765
-5.54888e-05
-8.38342e-06
2.87625e-05
9.90403e-05
-4.36297e-05
1.81708e-05
-0.000169497
6.91157e-05
0.00012983
-9.32175e-05
-1.71876e-05
-6.78562e-05
-1.37771e-05
-2.54696e-05
4.15121e-05
2.24675e-05
-9.06688e-05
2.38977e-06
2.23628e-05
-1.01803e-05
-2.06264e-05
8.91826e-05
-1.0496e-06
-7.01814e-05
6.77117e-05
-0.000114378
0.000177749
6.07083e-05
-6.39323e-05
-4.53338e-05
-9.15689e-05
5.09662e-05
0.000144512
3.63775e-06
9.31625e-06
-4.96001e-05
-2.26523e-05
-0.000135984
6.17021e-05
-8.23087e-05
-2.61462e-05
6.40771e-05
-3.31929e-05
3.07765e-05
8.76581e-05
-0.000151892
-5.16769e-05
1.66295e-05
-6.09263e-05
-0.000119047
6.81182e-05
1.12383e-05
-9.24431e-06
-5.5396e-05
0.000118444
-2.72865e-05
-0.000138147
4.61023e-05
4.37279e-06
3.15576e-05
-5.22431e-05
-7.02608e-05
5.66063e-05
0.000132814
0.000165444
0.00012442
5.91397e-05
-9.19702e-05
1.81688e-05
6.40913e-06
8.71539e-05
4.34435e-05
8.68462e-05
-6.83204e-05
2.92052e-05
-3.11069e-05
2.90946e-05
7.03546e-05
-7.91656e-05
0.000121496
1.4635e-05
-3.86849e-05
-5.5384e-05
-9.60237e-05
0.000150603
4.09505e-05
-7.54476e-05
-6.59029e-05
3.99823e-05
-3.86501e-05
0.000112857
-0.000197858
4.93142e-05
-6.38687e-05
-1.77041e-05
-2.65976e-05
-0.000101566
-1.8475e-05
-3.32675e-05
-1.24197e-05
-1.4306e-05
2.1155e-06
-3.65265e-05
2.22863e-05
-5.77045e-05
0.000197708
-0.000151495
-5.89499e-05
0.000137779
2.68318e-05
-9.80289e-05
-0.000124932
3.1143e-05
-1.91442e-05
1.89792e-06
9.94829e-05
0.00023289
7.02442e-05
-0.000154902
-8.7256e-05
0.000162866
4.77792e-06
-3.19141e-06
2.80289e-05
5.15272e-05
2.49968e-05
0.000113019
-0.00010313
6.42892e-06
-6.80698e-05
5.21248e-05
9.98091e-05
3.75336e-05
-1.25123e-05
2.7868e-05
-0.000175121
-3.98161e-05
0.000127756
5.71331e-06
-4.73845e-06
2.42176e-05
-0.000104495
-2.66114e-06
-0.000126257
-6.1329e-05
4.57137e-05
-2.78156e-05
7.88628e-05
0.000187592
0.000142461
-7.18026e-05
3.68711e-05
-7.99712e-05
-9.76786e-05
8.35124e-05
-7.66612e-05
1.73708e-05
3.88213e-05
3.76342e-05
-6.60972e-05
-4.90416e-05
-7.54814e-06
-0.000157611
7.44855e-05
0.000110231
0.000165343
-0.000116038
5.68125e-05
2.02927e-05
-4.26093e-05
4.47263e-05
-3.47779e-05
-3.89838e-05
-7.47686e-05
4.80481e-05
9.04488e-05
-5.58108e-05
-1.13854e-05
3.43565e-06
0.000201404
-5.2454e-05
6.94707e-05
-1.13575e-06
-8.97853e-05
6.21262e-06
-1.40305e-05
-5.95946e-05
3.46325e-05
0.000132578
-3.57158e-05
3.04381e-05
0.000111535
1.88514e-05
-1.74167e-05
-4.32124e-05
-1.18216e-05
-1.31899e-06
2.33713e-05
-2.01708e-05
-7.9371e-05
0.000145506
1.79219e-05
-2.63035e-05
-3.20199e-05
7.61123e-05
-8.72626e-06
-0.000197836
-0.000123453
2.00715e-05
4.62933e-05
0.000133335
-1.32771e-05
2.91376e-05
4.53092e-05
-3.26461e-05
-4.05909e-05
0.00012126
6.09388e-05
1.83126e-05
-6.41076e-05
8.71443e-05
-3.52125e-05
-2.23259e-05
2.69905e-05
-0.000210486
0.000114812
-9.1057e-05
0.00014374
1.79431e-05
1.02354e-05
-2.47059e-05
8.52563e-05
0.000171644
-1.39991e-05
-7.11631e-05
-7.28322e-05
5.84443e-05
5.2992e-05
6.56093e-05
-9.69053e-05
-1.35743e-05
0.000129801
0.000239294
-4.43282e-05
3.97889e-05
-1.95485e-05
9.60258e-05
-3.60284e-05
-0.000116182
-2.88166e-05
-4.16208e-05
0.000108468
7.31403e-06
2.43827e-05
-3.9587e-05
-9.52769e-05
0.000234467
8.88014e-05
5.22875e-05
7.42773e-05
6.16397e-05
-4.00974e-05
-8.55419e-05
-0.000195942
-9.62389e-05
-2.46787e-05
4.104e-05
7.28227e-05
-1.15088e-05
0.000226807
0.000109816
-0.000132022
-9.46305e-06
7.56362e-05
-8.94838e-06
3.65067e-05
0.000156297
0.000201727
3.5477e-05
0.000154689
-1.79439e-05
9.5934e-05
9.93994e-05
-0.000144887
-0.000179458
-5.57555e-05
-0.000112793
4.62697e-05
9.8038e-06
-3.30923e-05
-6.04563e-05
4.98863e-06
6.31218e-05
-4.55347e-05
8.08995e-05
-4.53433e-05
-5.27857e-05
-3.14519e-06
-3.57056e-05
-9.52999e-06
-6.95039e-05
0.000112653
3.84289e-05
3.97172e-05
0.00011879
0.000150988
-1.5148e-05
-7.94136e-05
9.34885e-06
-0.0001943
9.04908e-06
0.000121528
0.000118377
1.48941e-05
-4.72451e-05
-0.000137434
9.47147e-05
7.65388e-05
2.4328e-05
-5.19558e-05
-9.07071e-05
-7.84027e-05
-0.00013318
0.000166111
0.000142645
-1.2802e-05
-6.76489e-06
6.35245e-05
-0.00016043
6.1154e-05
6.3941e-05
-4.49236e-05
-0.000135077
6.33211e-05
-1.69151e-06
7.03938e-05
-3.51365e-06
2.15793e-05
-9.54928e-05
4.5402e-08
3.93018e-06
-0.000138938
-4.66087e-05
-2.13989e-05
3.82512e-05
4.52858e-05
-5.11388e-05
-4.63855e-05
-3.81476e-05
-3.43005e-05
0.000192354
7.41845e-05
0.000221835
0.000152335
-0.000181402
7.71312e-05
-2.89916e-05
-3.52783e-05
-1.87597e-05
3.99144e-05
7.15948e-05
0.00011
-1.746e-05
4.86122e-05
1.13272e-07
-2.96723e-05
-2.09548e-08
3.66989e-05
7.5239e-05
-6.67825e-05
-0.00012009
0.000114192
-8.33062e-05
0.000195565
-3.68105e-05
-4.92429e-05
-4.45822e-05
-6.72843e-05
-4.47985e-05
5.05159e-05
9.99528e-05
-0.000119873
-7.21815e-05
3.08806e-05
1.09177e-05
-6.43216e-05
-1.27675e-05
0.000136611
2.14311e-05
-8.01784e-05
0.000107603
-1.95217e-06
1.55652e-05
-0.000126493
-4.6882e-05
8.12869e-05
-2.08912e-05
-8.32626e-05
0.000186634
0.000197409
5.88673e-05
-0.000151033
-0.000109854
-0.000144197
-1.88318e-05
-2.3338e-05
9.07424e-05
0.000110765
8.3819e-07
0.000269337
6.35907e-06
-0.000178776
4.8205e-05
7.14441e-07
4.82099e-06
-7.97906e-05
-8.61993e-05
-1.99098e-05
-4.88923e-05
9.48089e-05
-7.22473e-07
0.000105487
-5.55774e-05
-3.23026e-05
-5.79748e-06
7.0036e-05
-2.66408e-05
5.87793e-06
2.30992e-05
-2.69384e-05
-3.54314e-05
0.000121423
-0.00019233
6.66257e-05
5.33483e-05
-3.13583e-05
-0.000112701
3.98422e-05
8.37329e-05
-0.000135248
-0.000129602
-3.15754e-05
-7.25347e-05
9.45916e-05
8.67739e-05
-0.000117805
-4.82253e-05
2.83646e-06
-0.00020758
2.65399e-05
0.000114953
2.7722e-06
-5.15216e-05
9.70062e-05
0.000128563
-5.79398e-05
4.13865e-05
8.48342e-05
-4.58402e-05
-9.13246e-05
0.000140747
2.6065e-05
-9.71524e-05
7.65488e-05
1.62685e-05
-0.000120146
-0.000104043
-4.25779e-05
0.000110973
2.52868e-05
-0.000134327
-6.40895e-05
0.000116879
5.98417e-05
-7.3112e-05
3.84441e-05
-2.63028e-05
-4.34947e-05
-9.02768e-05
2.12619e-05
-6.14577e-05
0.000181006
6.66184e-05
-0.00014922
-9.56724e-06
0.000104835
8.10269e-05
3.17444e-05
-2.58492e-05
-5.59184e-05
1.56058e-05
-4.15965e-05
4.94545e-05
-7.84524e-05
-0.0001203
1.88589e-05
3.40242e-05
-0.000102925
-9.41434e-05
-6.72649e-05
-2.0402e-05
-4.34598e-05
1.14386e-05
7.69983e-05
-0.00020248
-7.01298e-06
5.69589e-05
0.000138873
2.73634e-06
-1.34446e-05
0.000141716
-9.7819e-05
-1.75686e-05
-0.000114249
-4.51761e-06
0.000133411
-1.63738e-05
2.38845e-05
0.000114089
-1.51453e-05
5.78037e-06
-5.89264e-05
0.000106519
-0.000110708
6.32809e-05
0.000123234
-7.25344e-05
-4.84334e-06
4.08352e-05
-9.3549e-06
-0.000105669
-4.55789e-05
0.000124542
-6.00488e-05
-4.19324e-05
-0.000133914
-2.70046e-05
-2.5199e-05
5.45685e-06
-5.03566e-06
-7.6921e-05
6.50506e-06
0.000116326
0.000127373
0.00016673
-1.05564e-05
-0.00020648
0.000182522
7.48385e-05
-2.78914e-05
7.52548e-05
-4.91735e-05
-1.85497e-05
-1.14243e-05
3.40784e-05
-3.84292e-05
-7.33605e-05
8.69253e-05
6.50194e-05
-9.85952e-05
-5.78468e-06
-1.07905e-05
-5.80212e-05
-9.20602e-05
2.76716e-05
-8.15355e-05
-7.98197e-05
2.13586e-05
0.000112225
9.84112e-05
7.53234e-05
-0.000211936
0.00016368
-7.19712e-05
4.48013e-06
-3.96576e-05
5.87143e-05
3.47935e-05
3.4758e-05
2.93546e-05
4.70458e-06
5.54371e-05
-1.48639e-06
-0.000124395
-3.4835e-06
-5.07144e-05
-2.09996e-05
0.000129396
-2.92574e-05
2.09177e-05
-7.05537e-05
-0.000171928
-3.46857e-05
0.000154134
-4.65247e-05
0.000150401
-1.40689e-05
2.78039e-05
-4.51303e-05
9.39495e-06
0.000141182
3.29126e-05
-4.0613e-05
6.58381e-05
3.87591e-05
-2.93375e-05
-3.00343e-05
-5.72298e-06
6.48908e-05
-3.88516e-05
0.000130689
-4.9643e-05
7.59361e-05
-3.69509e-05
9.97784e-06
-6.46465e-05
3.62756e-05
-2.4982e-05
-3.81779e-05
1.75789e-05
-6.3281e-05
-6.81195e-05
7.20702e-05
-4.26061e-05
-4.93637e-05
-9.92033e-05
-0.000139118
9.75181e-05
-3.39866e-05
-0.000114887
-0.000112189
4.04845e-05
-2.1592e-05
-4.61725e-05
0.000109451
7.06454e-05
-4.02324e-05
6.59096e-05
-3.00456e-05
4.02903e-05
0.000171771
-0.000140593
-0.000213177
-5.79013e-05
-5.55336e-06
6.44497e-05
-0.000166967
8.32404e-05
7.40779e-05
-5.58095e-06
1.56966e-05
0.000152073
4.79019e-05
2.48017e-05
-1.0986e-05
-6.54359e-05
-9.80822e-05
-5.30051e-05
-2.28534e-05
0.000155693
6.38091e-05
4.59803e-05
-3.64108e-05
-0.000112674
-4.9845e-05
1.40643e-05
6.13113e-06
-2.21177e-05
3.62451e-05
6.27337e-05
2.96992e-05
7.35477e-05
-3.08981e-05
-8.75968e-05
1.02574e-06
0.000234072
-6.07657e-05
-8.99269e-05
4.31336e-05
9.36025e-05
4.04282e-05
-5.69888e-06
-7.08202e-05
-1.62121e-05
-8.73025e-05
-9.1234e-05
7.18259e-06
-2.21118e-05
4.96558e-06