# vtk DataFile Version 1.0
Net Charge Density
ASCII
DATASET STRUCTURED_POINTS
DIMENSIONS 256 128 1
ORIGIN 0 0 0
SPACING 0.15625 0.15625 1
POINT_DATA 32768
SCALARS rhonet float
LOOKUP_TABLE default
-3.89607e-06
-9.51272e-05
0.000144792
9.63219e-05
3.56846e-05
0.000120451
-0.000118445
9.18579e-05
0.000154216
2.28994e-05
-3.75607e-05
0.000108726
0.00010382
7.94453e-05
0.000109347
4.99606e-05
8.77434e-05
0.000140236
4.05877e-05
-6.79099e-05
-6.4068e-06
0.000141859
0.000144767
4.77823e-05
3.72682e-05
2.07424e-05
7.74218e-05
9.0589e-05
-1.35215e-05
-7.27425e-05
5.23026e-05
3.97232e-05
4.36689e-05
6.90084e-05
1.24417e-05
0.000171713
1.68076e-05
7.28725e-05
7.73574e-05
-5.53031e-06
2.29322e-05
6.83218e-06
0.000136404
9.39814e-05
2.09392e-05
1.8683e-05
-3.16133e-05
6.95547e-05
0.000116214
7.88725e-05
-1.20079e-05
2.49782e-05
8.34423e-05
0.000148995
3.5595e-05
1.75037e-05
0.000151011
-5.17472e-05
5.67816e-06
7.16953e-05
5.02793e-05
6.06019e-05
7.16746e-06
8.018e-05
8.22491e-05
-8.03831e-05
4.41821e-05
0.000136175
4.09954e-05
4.82837e-05
7.92339e-05
3.6711e-05
-2.69157e-05
4.96679e-05
-1.14786e-07
5.11557e-05
4.20854e-05
-3.8308e-05
9.21621e-05
0.000106615
8.71844e-05
2.54083e-05
7.49615e-05
0.000101106
4.54683e-05
-4.48013e-06
-1.66909e-05
6.70489e-05
0.000119669
-2.34882e-05
9.00028e-05
-1.47951e-05
-3.90528e-05
-6.21472e-06
-8.99179e-05
5.22719e-05
0.000157961
2.4097e-05
9.16882e-05
-2.49445e-05
0.000157723
9.09187e-05
-3.16952e-06
9.47258e-05
3.90382e-05
0.000130971
-2.58209e-07
-6.85494e-05
2.66265e-06
7.4e-05
0.00013342
5.79278e-05
2.02982e-05
3.31157e-05
8.04213e-05
4.36592e-05
1.2266e-05
7.49689e-05
5.09599e-05
4.32276e-05
-3.98807e-05
-3.45631e-05
4.04445e-05
2.44891e-05
0.00011572
6.60875e-05
1.8255e-05
8.13091e-05
1.99641e-05
-1.88098e-05
0.000119796
9.26158e-05
-2.24402e-06
3.77486e-05
2.03245e-05
6.79656e-06
4.46094e-05
-3.19165e-05
4.68965e-05
-1.15029e-05
-4.98407e-05
2.32952e-05
2.09624e-05
0.000160761
9.88222e-05
2.06346e-06
0.000137836
1.15247e-05
-3.1124e-05
0.000132418
1.78273e-05
2.91318e-05
0.000108428
-8.34547e-06
3.45046e-05
4.32305e-05
5.74649e-06
3.4271e-05
-5.27664e-06
1.75429e-05
7.67781e-05
2.50085e-05
0.000112709
-2.20696e-05
3.25853e-05
2.55228e-05
5.84617e-05
-6.12724e-05
0.000105448
0.000137295
2.50292e-05
4.32236e-05
7.45822e-05
0.000111579
-2.02683e-05
-8.13347e-06
8.72933e-05
-8.23222e-05
1.15575e-05
3.31802e-05
8.8769e-05
-7.05997e-05
-3.1811e-05
5.65371e-06
1.0499e-05
7.98532e-05
4.142e-05
7.20927e-05
0.000102554
7.46852e-05
2.48839e-05
0.000198125
8.16118e-05
-6.56995e-05
6.24199e-05
0.000201229
4.75222e-05
8.32754e-05
7.86667e-05
-1.63089e-05
5.95988e-05
0.00014917
4.39009e-05
3.83352e-05
-1.00754e-05
6.97707e-05
-5.98882e-05
5.34233e-05
6.868e-05
8.57902e-05
6.81024e-05
0.000137439
0.000106096
-2.40526e-05
0.000111081
-0.000131281
0.000102691
9.90945e-05
-5.28723e-05
-3.79214e-05
8.69742e-05
0.000114877
0.000176992
3.40516e-05
7.95294e-05
5.67443e-05
-3.69132e-05
-1.51402e-05
8.69039e-05
6.8607e-05
6.2281e-06
4.16548e-05
2.36379e-05
2.607e-05
0.000121307
-3.55702e-05
-2.05771e-05
2.7501e-05
5.94513e-05
8.979e-06
1.8499e-05
8.66941e-05
-5.82669e-05
-3.07104e-07
2.65902e-05
-1.44092e-05
-2.21955e-05
-3.95463e-05
0.000128655
-4.29619e-06
2.10484e-05
-3.85132e-05
0.000102294
2.14381e-05
2.40527e-05
4.18613e-05
-0.0001049
2.47046e-05
-6.30283e-05
-2.51188e-05
-2.38866e-05
5.12255e-05
-2.60446e-05
-7.57636e-05
4.98929e-05
-6.60461e-05
-4.29002e-05
2.33412e-05
-5.99086e-05
-8.02728e-05
3.00223e-06
-4.24265e-05
4.6622e-06
1.08911e-05
-2.15758e-05
-4.06045e-06
-5.82077e-05
-6.74946e-05
-0.000106138
-1.79203e-05
-2.00452e-05
-5.72714e-05
-2.52762e-05
7.73068e-06
-3.0741e-05
-8.53869e-05
-3.53891e-05
-8.36106e-06
2.74419e-05
-7.95685e-05
-6.67477e-05
2.31334e-05
-0.000103178
-3.3788e-05
1.98344e-05
-8.20329e-05
-5.15863e-05
-4.38417e-05
8.67248e-06
3.55995e-05
-2.47122e-05
4.87419e-06
-0.000112385
-3.15171e-05
3.88798e-05
-3.39408e-05
-6.5613e-05
-4.1193e-05
-3.17376e-05
2.98234e-05
-2.85318e-05
-3.54571e-05
-2.34868e-05
-0.00011611
1.48101e-05
-3.3793e-05
4.56311e-05
-5.12691e-05
-5.72854e-05
-3.73456e-05
-3.01473e-05
-6.05672e-05
-1.00291e-05
-7.96346e-05
-0.000109192
1.21042e-05
-4.39815e-05
9.0173e-06
-1.84361e-05
1.72423e-05
-5.13539e-05
-1.04335e-05
4.76099e-05
-2.54943e-05
5.74091e-05
2.16416e-07
-3.24125e-05
-5.04442e-05
-8.22558e-05
2.84831e-05
2.44665e-05
-6.16945e-05
-0.000158637
-4.16978e-05
-6.60075e-08
-1.69142e-05
8.77352e-06
5.33118e-05
3.1559e-06
-1.0794e-05
2.47142e-05
-5.96512e-06
3.43232e-05
-2.73113e-05
-6.84685e-06
-1.89513e-06
-4.36435e-05
-0.000106617
-3.96516e-05
-2.96775e-05
-3.556e-05
1.6422e-05
-5.91248e-05
-4.27186e-05
-1.0673e-06
-5.99935e-06
5.43522e-05
-3.54243e-05
-7.13803e-05
-7.13194e-05
4.01699e-05
1.15474e-05
-5.23519e-05
-1.11546e-05
9.64501e-06
3.18993e-05
-8.5775e-05
1.39617e-05
-6.13794e-05
-7.74174e-06
-3.48631e-05
-1.67098e-05
-4.55658e-05
-6.96027e-05
1.7025e-05
-4.88108e-05
-2.07967e-05
1.59815e-05
-1.05535e-05
-2.35445e-05
-1.2441e-05
-3.31047e-05
-4.60126e-05
-1.33584e-05
-4.22456e-05
-8.323e-06
-5.94476e-05
-7.82579e-05
8.69716e-06
-2.01969e-06
-8.38249e-05
1.05492e-05
-3.22354e-05
-4.36762e-05
-0.000117681
-8.72533e-06
-3.99582e-05
-3.83079e-05
-7.16746e-05
9.37108e-06
3.00054e-05
-1.7041e-05
-2.39993e-05
-1.85554e-06
-5.11224e-05
-2.02564e-05
-8.13492e-05
-6.40947e-05
3.62427e-05
-8.0271e-05
-7.56304e-06
2.37453e-05
2.21167e-05
-5.27812e-05
-2.42516e-06
3.60706e-05
-9.46564e-05
1.02371e-05
-2.2148e-05
3.97032e-05
-4.1351e-05
-2.55482e-05
-5.70039e-06
3.04059e-05
-6.90699e-05
-4.77678e-05
3.67506e-05
-4.79631e-06
2.05857e-06
-4.86561e-05
-0.000107547
-6.60247e-05
-2.66001e-05
-2.24797e-05
-9.32999e-06
-1.88574e-05
-0.000101449
6.32298e-06
3.69597e-05
4.6104e-06
-1.0849e-05
-2.36548e-05
-8.50841e-05
-3.9091e-05
4.81101e-05
-6.9777e-06
-7.51886e-05
-6.4628e-05
-4.37897e-05
3.07559e-05
-5.53509e-05
1.83063e-06
-5.12166e-05
9.7167e-05
1.17975e-05
-4.14064e-05
-5.2241e-05
-4.83998e-05
-4.73997e-05
3.21256e-05
-3.50832e-05
-7.29871e-05
1.69815e-06
-2.53879e-05
-1.98882e-05
4.50574e-06
-1.732e-05
7.05677e-05
5.70895e-05
-6.70664e-05
-3.48983e-05
-2.73385e-05
-7.02046e-05
-2.06064e-05
2.42676e-05
8.58861e-05
-8.70345e-05
6.93486e-06
-4.34535e-05
-3.62698e-05
6.9032e-05
3.75879e-05
-6.27581e-05
-4.99131e-06
2.55418e-05
-5.11215e-05
2.26249e-05
-1.34826e-05
-4.8021e-05
-1.98239e-05
3.05497e-06
3.73247e-05
3.4268e-05
-1.23484e-05
-2.31678e-05
-0.000132199
-1.66823e-07
-7.60623e-06
5.1258e-05
-7.35314e-06
-7.36321e-05
5.01703e-06
-3.30424e-05
-1.99128e-06
5.00253e-05
-7.79761e-06
-2.33894e-05
-8.48016e-06
1.05402e-06
-1.9229e-05
7.13235e-05
-5.15233e-05
7.82288e-06
3.11629e-05
6.53439e-05
-4.67902e-05
-2.90639e-05
-1.14903e-05
-2.49573e-05
-9.34284e-05
-2.0482e-05
3.51591e-05
4.88631e-05
3.64076e-05
-1.64527e-05
3.77698e-05
6.14582e-05
-4.75247e-05
4.48448e-05
4.40084e-05
9.82278e-06
-5.10864e-05
1.23073e-05
2.34442e-05
7.04303e-05
4.96684e-05
-3.57148e-05
2.25289e-05
5.27373e-06
-2.51165e-05
4.8009e-05
3.40394e-05
2.11629e-05
-2.892e-05
-7.34262e-05
2.16754e-05
3.48729e-05
1.4212e-06
-4.63355e-05
1.81736e-06
-1.6571e-05
5.22442e-05
1.9271e-05
-4.25106e-05
-9.05942e-05
6.8841e-06
2.94284e-05
9.43267e-06
3.9076e-05
-4.0176e-05
2.79769e-05
-3.30701e-05
9.02752e-05
1.87055e-05
2.19359e-05
-2.38945e-05
3.89217e-05
7.95068e-05
-1.42981e-06
-1.07866e-05
-4.31228e-05
-5.63427e-05
3.6556e-05
5.69131e-06
-2.97661e-05
3.18506e-05
-3.75105e-05
-1.97686e-05
6.36957e-05
5.06416e-05
-4.80588e-05
-4.18769e-05
-9.31229e-06
-2.63562e-05
-1.33658e-05
5.09446e-05
7.41067e-05
-1.38804e-05
-5.52132e-05
-6.0239e-05
2.25467e-05
4.01649e-05
-3.56473e-05
4.60861e-05
6.0403e-05
1.00419e-05
-2.72852e-05
-6.84022e-05
1.03845e-05
-3.90667e-05
-6.67316e-05
1.89326e-05
-3.86655e-05
-7.26085e-05
1.55345e-05
3.4466e-05
-9.18168e-06
-2.52384e-05
3.49989e-05
6.71942e-05
-7.81449e-06
-2.34847e-05
1.90872e-05
-3.45565e-05
-3.24682e-06
3.17623e-05
-4.33621e-05
-4.4457e-05
-1.29165e-05
6.19071e-05
-1.54721e-05
-1.92423e-05
-9.33767e-07
1.07803e-05
-2.67865e-05
6.43284e-05
6.2841e-07
3.16113e-05
-3.45439e-05
-2.02107e-05
3.29809e-05
-8.9294e-06
-5.33779e-05
-6.58381e-05
-1.97738e-05
2.38337e-06
3.65477e-05
8.36782e-06
-1.87824e-06
1.48289e-05
-2.75736e-05
4.24775e-05
2.79525e-05
9.69106e-05
6.65829e-05
1.94262e-05
1.4567e-05
-1.36639e-05
5.90178e-05
5.77695e-05
-3.53307e-05
8.65562e-05
-1.88483e-05
-2.10219e-05
-5.39366e-05
1.12341e-05
-1.22989e-05
7.03163e-05
-1.07868e-05
6.14929e-06
5.77931e-05
3.47514e-05
-3.56395e-05
-5.85592e-06
4.3827e-05
2.99957e-05
1.48881e-05
3.09409e-06
-6.2997e-05
1.44138e-05
-9.34462e-05
4.10881e-05
-3.34161e-05
-7.29719e-05
6.78631e-06
-4.31379e-05
3.26064e-05
-5.40693e-05
-3.51891e-05
-7.38096e-06
-3.46781e-05
7.78108e-06
5.2859e-05
1.66988e-05
-1.61515e-06
7.61891e-05
-2.89571e-06
5.27902e-05
3.30989e-05
2.69054e-05
3.20115e-05
-4.14012e-05
-7.91214e-05
6.70389e-06
-3.71062e-05
3.38419e-07
3.12877e-05
2.55895e-05
4.6243e-05
-7.34441e-06
3.85575e-05
-1.82481e-05
8.604e-05
-3.51763e-05
-2.42107e-05
-2.44786e-05
3.96877e-05
3.96366e-05
-5.59597e-06
-1.59817e-05
5.26491e-05
-3.12823e-05
-9.51323e-06
1.32089e-05
3.03081e-05
4.01441e-05
-6.213e-05
6.55756e-06
-4.02804e-05
7.68167e-05
-2.30571e-05
2.42726e-06
-2.36239e-05
-7.65687e-06
1.05635e-06
-7.58459e-05
1.89049e-05
4.24923e-05
2.73308e-06
-4.68802e-05
-0.000111356
2.32973e-05
1.92825e-05
1.66951e-06
4.11416e-05
-1.26262e-05
3.11423e-06
-2.15395e-05
-7.41896e-05
3.57798e-05
1.81659e-05
-4.43211e-05
1.38062e-05
2.4942e-05
-1.40066e-05
-5.45266e-05
-1.59671e-05
4.84831e-05
-4.49945e-06
-0.000139602
5.79737e-05
3.08061e-05
0.000100899
-3.72756e-05
3.8272e-05
1.96728e-05
-2.19462e-05
-3.16998e-05
-3.15026e-05
5.79795e-05
8.84754e-05
-9.06712e-06
-5.99886e-05
9.2187e-06
8.46398e-06
-1.86265e-08
-2.07848e-05
-3.90377e-05
0.000130275
-3.43212e-05
-4.70522e-05
5.37112e-05
-2.7963e-06
2.82261e-06
-3.7919e-05
-6.0541e-05
4.75422e-05
4.84355e-05
-1.75372e-05
3.74631e-05
-5.19104e-05
4.18175e-05
3.39495e-05
-6.99726e-05
2.73657e-05
3.8806e-05
1.67808e-05
-5.26786e-05
6.28685e-05
-2.19624e-05
-4.31007e-05
-7.40332e-06
-2.66791e-05
4.25464e-05
3.6502e-06
2.75727e-05
-4.73876e-05
-6.43707e-06
3.03095e-05
-2.263e-05
-8.19337e-05
-4.95821e-05
1.36236e-05
3.36367e-05
4.53521e-05
-3.78167e-05
6.72047e-05
-2.02061e-05
-6.23035e-05
4.74699e-05
4.62761e-05
1.24054e-05
3.82883e-05
2.15032e-05
5.87146e-05
-6.50003e-05
-4.25666e-05
-1.34121e-05
4.39062e-05
4.78703e-05
-2.23207e-05
-6.05176e-05
1.98302e-06
-2.43715e-06
-3.00116e-05
1.48918e-05
2.92045e-05
7.28866e-05
7.06636e-05
-3.58257e-05
-0.000140627
2.58458e-05
1.20327e-06
-2.88258e-05
-4.697e-05
5.72429e-05
3.12586e-05
1.75565e-05
-0.000107817
-1.58472e-05
1.13324e-05
3.99519e-05
3.2814e-05
-4.30103e-05
3.20366e-05
3.74886e-05
-3.91935e-05
2.83313e-05
3.71943e-05
-1.37145e-05
3.56364e-05
-5.44165e-05
8.30449e-05
3.03246e-05
-1.94269e-05
-2.67292e-05
6.84275e-05
4.12179e-05
-2.91595e-05
3.35345e-05
3.92133e-05
3.68371e-05
-3.48372e-05
-2.81518e-05
1.41673e-05
3.52946e-05
-7.15666e-05
-2.16162e-05
4.60052e-05
3.64992e-05
2.31859e-05
-3.12355e-05
-7.13484e-05
2.25477e-05
-3.52727e-05
7.69855e-05
-4.16437e-05
-1.37859e-05
7.45142e-05
-5.40668e-05
4.00376e-06
-1.77847e-05
-5.58051e-05
2.01232e-05
5.95988e-06
5.05814e-05
6.31162e-05
-6.58256e-05
8.14185e-05
-4.32234e-05
-2.44335e-05
2.67207e-05
4.39421e-06
9.56806e-06
7.65512e-06
4.39119e-06
-4.22159e-05
2.17032e-05
1.01279e-05
-1.56356e-05
-7.88145e-05
-2.79716e-05
-7.3316e-06
2.62831e-05
6.22869e-06
2.38398e-05
-8.04092e-06
5.26161e-05
3.00963e-05
-3.07958e-05
-8.68588e-05
1.14745e-05
3.87334e-05
1.11606e-05
-2.85619e-05
-9.12463e-06
-2.48151e-06
2.21182e-05
-3.22994e-06
2.53447e-05
2.25464e-05
3.20962e-05
-2.08742e-05
-3.06289e-06
6.05546e-06
-3.41376e-06
3.49665e-05
-2.44873e-05
5.34733e-05
1.9663e-05
1.27886e-05
-1.15689e-05
2.9253e-05
2.8708e-06
3.39592e-05
-1.87168e-05
-2.8864e-06
-6.90419e-05
2.46684e-05
-5.03915e-06
-1.26838e-05
2.05981e-05
-2.634e-05
-2.66172e-06
-3.02475e-05
-7.3893e-05
-1.16546e-05
0.000124286
-9.6718e-05
2.30565e-05
4.0888e-05
1.12085e-05
1.89698e-05
2.29749e-05
-6.50403e-05
-1.85563e-05
-3.58939e-05
9.88832e-06
-2.25084e-05
-0.000114619
5.06439e-05
-0.000120174
-5.21552e-05
0.000129995
-2.85542e-05
-3.29314e-05
1.39812e-05
-3.08815e-06
-4.58432e-06
-6.87172e-05
5.00935e-07
2.54061e-05
-3.06813e-05
-4.83694e-05
-2.09837e-05
3.77458e-05
3.9908e-05
1.09903e-05
-3.37759e-05
2.43064e-05
4.91922e-05
4.58607e-05
-7.13925e-05
-6.57423e-05
-4.48682e-05
5.14659e-05
2.45101e-06
-1.54693e-06
-6.96706e-05
3.4261e-07
-1.04236e-05
6.89458e-06
-2.29044e-05
-2.35555e-06
-3.06217e-05
3.27418e-05
-3.2268e-06
-1.03374e-05
-2.52562e-05
2.8462e-05
9.52227e-05
-3.02618e-05
3.21714e-05
4.43812e-05
-4.54092e-05
-0.000101101
-3.30776e-05
0.00011101
6.25442e-05
-5.28279e-05
-0.000107186
-1.18125e-05
6.8567e-05
3.46118e-05
-5.40467e-05
-5.21383e-05
4.75172e-05
-4.06366e-05
-0.000119436
6.12037e-05
-1.81564e-05
-3.11725e-05
0.000105493
-4.54735e-05
-9.29439e-05
-5.38456e-05
9.50601e-06
-5.5499e-05
1.67228e-05
4.28176e-06
-7.23697e-05
6.52391e-06
4.59251e-05
6.77723e-06
-2.06707e-06
5.32219e-05
2.83385e-05
-3.7598e-05
-4.85517e-05
0.000104193
-1.62808e-05
-5.72752e-06
-2.96999e-05
-2.67266e-06
-4.58122e-05
8.22777e-06
-1.31112e-05
-4.38888e-05
-3.36712e-05
-5.49544e-05
4.80606e-05
-3.43904e-05
5.50933e-05
-3.26771e-05
-2.49939e-05
-9.60927e-06
3.26966e-05
-4.3438e-05
8.2174e-05
3.99014e-06
1.01079e-05
-2.64163e-05
-1.68546e-06
5.18314e-05
-5.05229e-05
7.65341e-05
-2.69972e-05
-2.84479e-05
5.25312e-06
1.91294e-05
5.75274e-05
-1.55075e-05
1.41474e-05
1.54795e-05
9.67544e-05
-2.60593e-05
2.79723e-06
-6.8649e-05
-4.36453e-06
5.35557e-06
-6.23055e-07
-1.12274e-05
2.76116e-05
-7.06456e-05
2.38866e-05
3.64636e-05
-5.86116e-06
-1.47324e-05
5.85362e-05
-1.46357e-06
5.05708e-07
-8.36374e-06
-6.68822e-05
-7.45885e-06
-5.66771e-05
5.49144e-05
-1.55683e-05
-6.51169e-05
1.93972e-05
-2.5009e-05
1.49551e-05
4.44497e-05
-8.87853e-06
-5.64913e-05
-7.07043e-05
-8.34174e-06
-2.96303e-05
-2.15287e-06
-1.83213e-05
-1.89291e-06
-0.000102778
8.7478e-06
3.24822e-05
3.07963e-05
-0.000103662
-3.61555e-05
2.02425e-05
8.39111e-05
4.753e-06
-1.31455e-05
3.19694e-05
7.14674e-07
-3.7137e-05
-7.51378e-05
-6.92117e-05
-2.21282e-06
-7.09706e-05
1.36718e-06
-4.37519e-05
5.21007e-05
-3.20333e-05
-2.11226e-05
9.38214e-06
-1.06078e-06
4.85114e-06
-2.59295e-05
5.72978e-05
-2.03841e-05
4.02208e-05
1.71233e-05
-4.3611e-05
4.79096e-06
-4.09898e-05
-3.49013e-07
2.30944e-05
-3.31621e-05
1.34483e-05
1.23589e-05
-2.61038e-05
-4.63813e-05
1.17684e-05
-4.40206e-05
0.000100773
4.16173e-05
5.95754e-05
5.7274e-06
3.63553e-06
3.72169e-05
-2.83864e-05
-2.65326e-05
-3.87033e-05
-3.3244e-05
-2.94484e-06
-4.83484e-06
-7.42385e-05
-9.21184e-05
-4.12924e-05
9.36037e-05
1.79688e-05
2.46144e-05
5.07899e-05
-3.90918e-05
-4.86934e-05
-6.07772e-05
2.91871e-05
-7.01525e-05
2.39778e-05
5.71006e-05
1.4381e-05
-8.54449e-05
6.4892e-05
5.64149e-06
1.15009e-05
-0.000120717
5.33741e-05
7.36075e-05
5.39108e-06
1.38737e-05
1.18414e-05
-9.6513e-06
3.66955e-05
-3.03434e-05
4.71817e-05
6.17243e-05
-4.68141e-06
-4.04326e-05
-2.98402e-05
4.83368e-06
-1.19221e-06
4.36949e-05
-1.84902e-06
-1.13774e-05
-1.70611e-05
7.8248e-05
-4.5842e-06
1.79142e-05
-3.62856e-05
-7.78632e-05
7.38347e-05
-9.19312e-05
-5.20796e-06
2.09282e-05
2.30595e-06
7.05892e-05
3.83814e-05
7.42113e-06
5.50147e-05
-1.01443e-05
4.60945e-05
-1.68376e-05
-5.8875e-05
-4.91891e-05
5.14215e-05
5.45885e-05
-1.9853e-05
5.8101e-05
3.02009e-05
1.38805e-05
2.24964e-05
6.25562e-05
6.90203e-06
-8.80084e-05
-1.34252e-05
-5.00761e-06
4.87001e-05
5.99249e-05
6.30917e-05
1.42714e-06
2.14427e-05
-2.66384e-05
-9.90473e-06
-6.22044e-05
-1.60281e-05
3.25947e-05
-3.85358e-05
-1.90416e-05
5.31547e-05
-2.28166e-05
1.54099e-05
-4.23559e-05
-5.64614e-07
-5.11485e-05
-1.0791e-05
-0.000114607
2.06345e-05
1.91701e-05
7.28538e-05
2.73274e-05
-4.94906e-05
5.05785e-05
5.2787e-05
6.41997e-05
-7.98993e-06
4.43973e-05
-4.8651e-05
-2.5887e-05
-3.12882e-05
9.7664e-05
-4.46024e-05
-4.87096e-05
2.70449e-05
-5.04581e-05
1.36548e-05
-9.01835e-05
-0.000131356
6.04797e-05
5.67493e-05
-1.70096e-05
2.47731e-05
-9.10822e-06
5.16702e-05
-8.06584e-05
3.82912e-05
3.78343e-05
1.59069e-05
-7.97596e-06
-6.65558e-06
3.57421e-05
3.13772e-05
-9.32622e-05
-4.72959e-05
-9.38072e-05
-4.97694e-05
6.84743e-05
-3.54394e-05
9.14535e-06
-3.66229e-05
3.8721e-05
1.69347e-05
4.47605e-05
-5.40495e-05
2.94941e-05
6.61319e-05
1.22413e-05
-6.64289e-05
1.13319e-06
1.48162e-05
-1.36935e-05
6.08945e-05
-9.09087e-07
7.89309e-05
9.09658e-06
5.26162e-05
-9.66374e-05
3.41132e-05
6.60541e-06
-1.27822e-05
-4.43456e-05
-2.067e-05
3.14997e-06
-9.30508e-07
-6.30611e-05
-0.000100799
-4.15875e-05
-9.15081e-05
-4.81866e-05
5.62918e-05
-1.52458e-05
-5.22906e-05
-2.41201e-05
-1.08295e-05
-4.57687e-05
-4.23096e-05
1.19052e-05
2.83608e-05
-1.41363e-05
-5.28244e-05
-6.13476e-05
1.77323e-05
1.07328e-05
-2.08275e-05
5.9631e-05
1.79058e-06
2.51203e-05
-2.36355e-05
5.88677e-05
3.18951e-05
4.76104e-05
-7.31893e-05
7.22464e-05
-0.000100922
-6.24103e-06
6.49311e-05
8.48947e-06
3.23068e-05
-3.30701e-06
-4.32198e-05
2.37848e-06
1.99964e-05
-1.27289e-05
9.59367e-06
3.61395e-05
2.75431e-05
6.92136e-05
-2.72389e-06
-6.32238e-05
-6.1458e-06
-7.61088e-06
-1.02114e-05
4.45035e-05
5.20144e-06
2.67314e-05
-6.62997e-06
-4.79852e-06
-2.94802e-05
1.43548e-05
5.68922e-06
6.79198e-05
9.01206e-06
3.43908e-05
1.84248e-05
1.29036e-05
-4.46523e-05
3.45936e-05
3.36547e-05
1.93832e-06
-1.88093e-05
4.46875e-05
-5.23897e-05
6.75367e-05
7.74651e-05
6.37211e-06
8.13848e-05
-3.18107e-05
2.20664e-05
-1.73565e-05
-2.87807e-05
-6.86574e-05
1.19235e-05
2.47909e-05
1.23705e-05
-3.48676e-05
2.16777e-05
-2.2075e-05
-3.52541e-06
1.23351e-05
1.70933e-06
2.97131e-05
-6.88559e-05
-1.33733e-05
9.18959e-05
-3.43513e-05
1.47286e-05
-1.23635e-05
4.94568e-05
2.42064e-05
-4.44683e-05
5.05934e-05
0.000106778
9.66931e-05
6.52504e-05
8.89762e-07
-7.20681e-06
-1.14569e-05
6.66899e-05
-5.44824e-06
4.01792e-05
-2.33982e-05
4.17558e-05
-3.41269e-05
-2.13975e-05
6.28107e-06
-2.62642e-05
3.58209e-05
-8.93143e-05
4.69465e-05
-3.57551e-05
3.30245e-05
2.34637e-05
-9.97117e-05
2.21339e-05
3.57018e-05
-1.87464e-05
2.13264e-05
-6.78232e-05
2.71618e-05
-5.16979e-05
5.68144e-05
4.88437e-05
-1.74809e-05
3.80409e-05
4.5417e-05
1.17875e-05
-8.37981e-06
2.07494e-05
-2.05641e-05
5.28255e-05
-7.57063e-05
-4.26272e-05
-7.6727e-06
2.04988e-05
-1.54357e-05
-3.1233e-05
1.17397e-05
6.21652e-05
4.88085e-05
4.33601e-06
-0.00012757
-5.02244e-05
-6.86676e-05
-6.61e-05
3.09134e-05
7.6151e-05
-7.01359e-05
-7.03032e-06
9.28529e-06
4.82404e-05
3.83973e-06
8.47317e-06
-6.75764e-05
-1.85836e-05
1.21733e-05
-8.66817e-06
-3.19523e-05
-1.42832e-05
3.18419e-06
7.33056e-06
1.82408e-05
2.56515e-05
-6.78841e-05
-4.71424e-06
3.49291e-05
-5.05324e-05
1.07944e-05
-1.50147e-05
-1.63054e-05
-2.95395e-05
9.53886e-05
2.63902e-05
-1.76691e-05
-2.15018e-05
-1.27995e-05
8.03266e-06
-1.35811e-05
2.63905e-05
-7.18492e-06
-1.90848e-05
2.17275e-05
5.39323e-05
-9.03434e-05
5.79039e-05
-1.44772e-05
-1.46055e-05
-3.83226e-05
-4.5439e-05
2.6162e-05
5.74819e-05
2.07162e-05
1.80587e-05
2.6194e-05
-7.22182e-06
-2.65965e-05
2.38707e-05
-3.81793e-05
-3.29991e-05
2.8661e-05
4.19584e-06
5.34139e-05
-1.2902e-05
-4.54625e-06
9.10494e-05
1.63321e-05
1.69141e-05
-4.6327e-05
3.55744e-05
-3.91717e-05
2.29459e-05
1.72227e-05
3.08629e-06
6.80583e-05
6.72812e-05
-1.70233e-05
-7.54686e-06
4.5586e-05
-1.23873e-05
-6.61262e-06
0.000122597
3.26276e-05
1.82132e-05
2.49494e-05
-5.22539e-05
-2.22395e-05
-5.70166e-05
1.30443e-06
7.6904e-06
2.41781e-05
1.07717e-05
-5.20684e-05
1.76707e-05
6.44928e-05
-6.11885e-05
5.44073e-05
-4.49324e-05
-7.05204e-05
6.23078e-06
3.27919e-05
4.70872e-05
1.32667e-06
1.32956e-05
-7.78602e-05
-2.8183e-05
-6.89272e-06
0.000112601
3.68474e-05
-3.34257e-05
4.85627e-05
3.18347e-05
1.14888e-05
6.94901e-05
0.000133271
-7.38588e-05
-4.20366e-05
-1.68969e-05
2.04106e-05
8.13243e-06
-1.95544e-05
3.47551e-05
5.05912e-05
-6.30392e-05
-4.22689e-05
1.79623e-05
5.70347e-05
-6.66478e-07
2.83984e-05
-3.478e-05
-8.23165e-05
-3.16931e-05
-5.51024e-05
-1.69484e-05
6.43993e-05
-5.57775e-05
5.25212e-05
-0.00011234
-7.10648e-05
-1.52234e-05
-1.60271e-05
-3.59302e-05
5.28325e-05
4.40273e-05
-4.7544e-06
-6.05783e-05
-2.03247e-05
1.72128e-05
2.40905e-05
-2.15004e-05
-3.80276e-05
1.84211e-05
-5.2297e-05
-1.48044e-05
-9.04258e-05
-1.86138e-05
-1.40986e-05
0.000121307
-2.547e-05
5.25208e-05
3.7947e-05
3.11935e-05
-3.85306e-05
-5.10272e-06
-4.49661e-05
2.62952e-05
1.12428e-05
-1.86053e-05
1.74432e-05
-3.76217e-05
8.71089e-06
-3.17955e-05
7.14649e-05
-7.47017e-05
0.000101809
5.19644e-05
3.18052e-05
1.94152e-05
4.63655e-05
-3.00491e-06
1.62399e-05
7.99993e-05
3.67628e-06
-1.37989e-05
-5.2109e-05
-5.62186e-05
2.68223e-05
-3.78024e-05
-4.78231e-05
2.88626e-05
-2.68993e-05
-1.16547e-05
-5.02805e-05
3.10764e-05
-2.00599e-05
3.81089e-05
-8.71741e-05
-4.69049e-05
1.67186e-05
4.92436e-05
9.12813e-06
1.42585e-06
-6.69421e-05
-7.27302e-05
-1.43618e-05
-9.74454e-06
-1.5698e-05
2.67376e-05
-9.21225e-05
-5.88649e-05
-1.25873e-05
5.10607e-05
-8.97488e-05
7.86019e-05
1.30897e-05
1.51682e-05
-0.000114672
-4.19709e-05
1.06479e-05
8.8416e-05
-6.75325e-06
-6.93055e-06
1.08078e-05
-9.15197e-05
-1.49587e-05
1.07784e-05
5.18087e-05
-3.28285e-05
4.25938e-05
9.43081e-06
7.85571e-07
4.0361e-05
-3.83426e-06
2.66727e-05
-2.21875e-05
6.11763e-07
2.16393e-06
1.83084e-05
-2.01637e-05
-7.52349e-05
-8.20152e-05
-4.08834e-05
3.06881e-05
3.11448e-05
-1.76033e-05
-1.14897e-05
3.87502e-05
9.27423e-06
1.17532e-05
-4.44868e-05
-5.27485e-05
-4.26522e-05
9.60719e-05
-3.91065e-05
-6.17562e-05
-4.51249e-05
4.72029e-06
-4.1578e-05
-1.74763e-06
2.57664e-05
4.81142e-05
-3.50766e-05
2.8915e-05
3.42639e-05
2.19487e-05
-2.03149e-05
-2.84291e-05
2.95845e-05
6.23249e-05
1.81489e-05
-1.77096e-05
-4.22895e-05
-3.51807e-06
6.32221e-05
3.54624e-06
7.63207e-06
-5.29422e-06
1.01693e-05
2.74982e-05
2.91364e-05
-2.60756e-05
-5.97396e-05
8.67875e-05
3.29316e-05
-1.45729e-05
-1.42372e-05
5.72898e-05
3.84275e-06
9.81888e-05
0.000121367
-2.85937e-05
2.49979e-05
7.872e-06
-1.86713e-05
-1.70153e-05
-7.32371e-05
0.00011208
-1.25972e-05
-6.01787e-05
7.86292e-06
3.08842e-05
9.78436e-06
7.84115e-06
1.71365e-05
4.81959e-08
-2.67224e-05
-2.56805e-05
-4.13372e-05
-4.55836e-05
-1.76234e-05
-7.76607e-06
-4.82695e-05
7.13979e-05
1.64241e-05
3.01738e-05
-3.19598e-05
1.3984e-05
-1.394e-05
-1.55894e-05
4.47617e-06
-1.65859e-05
8.27657e-05
5.56016e-05
5.67234e-06
3.54117e-05
2.86195e-06
-1.63057e-05
2.07496e-05
9.63244e-06
-1.4501e-05
-4.88881e-05
-4.07479e-05
-9.69216e-06
4.12578e-05
-2.15803e-05
-3.4153e-05
5.64972e-05
-1.37317e-05
-5.04197e-05
3.8474e-05
-2.33619e-05
-1.19582e-06
-5.94469e-05
5.95255e-06
6.40079e-05
-7.39726e-05
-2.23712e-05
-4.28851e-06
-7.43163e-05
-1.58099e-05
5.60064e-05
-2.41019e-05
5.20141e-05
4.58722e-05
-3.16432e-05
0.000122277
2.89961e-05
1.20702e-05
-2.74093e-05
-3.44678e-05
-3.20203e-05
5.98459e-05
4.27903e-05
-2.5427e-05
-1.62855e-05
4.25264e-05
4.55978e-05
-7.0805e-05
-4.53838e-05
-1.75918e-05
6.00133e-05
3.70808e-05
4.3698e-05
-7.64499e-06
2.17557e-05
1.48428e-05
1.47814e-05
3.49525e-05
1.44985e-05
-7.17354e-05
5.90797e-05
3.93528e-05
-1.62125e-05
4.74526e-05
-1.84559e-05
-3.8423e-05
8.46089e-05
5.78983e-05
5.29934e-05
-2.8295e-05
-1.40264e-05
-3.38163e-06
6.56866e-05
1.70163e-05
1.81664e-05
-1.45179e-05
-3.22156e-05
8.30181e-06
5.70649e-05
3.72087e-05
6.89623e-05
3.92864e-05
3.07858e-05
-1.59347e-05
4.17507e-05
8.47271e-06
-3.21824e-05
-1.07553e-05
-1.45924e-05
5.39321e-05
1.21894e-05
2.11236e-05
-2.64748e-05
1.12986e-05
-2.39079e-05
-1.4451e-05
1.09978e-05
-7.7351e-06
4.68991e-06
1.68592e-05
6.67056e-05
1.57991e-05
-0.000107579
-8.24992e-05
6.52345e-06
-5.85071e-05
5.17322e-05
1.84864e-05
1.66772e-05
-7.07682e-05
5.68549e-06
-1.86227e-05
-4.33433e-05
5.83275e-05
-4.15356e-05
-7.76732e-05
-1.33209e-05
-3.74749e-05
-1.09931e-06
5.06311e-05
3.43448e-05
5.21399e-05
2.95318e-05
4.71438e-05
-2.02373e-05
0.000134812
5.51657e-05
-3.82706e-05
-1.12216e-05
0.000111732
1.12783e-06
-1.3834e-05
-2.07326e-05
-1.05338e-05
5.75138e-06
2.51088e-05
-6.47182e-05
1.22259e-06
0.00011825
2.02322e-05
-6.9679e-05
-8.34576e-05
9.06892e-05
4.29543e-05
-6.09934e-05
-2.33715e-06
4.52425e-06
-2.48614e-05
-7.4984e-05
-6.3011e-06
3.39795e-05
6.2887e-05
-2.65893e-06
-2.97544e-05
-6.67728e-05
-1.08314e-05
7.42322e-06
3.03183e-05
-1.26915e-05
1.26481e-05
-3.24743e-05
-1.54031e-05
4.65957e-05
-6.0664e-07
-7.33231e-05
-3.61173e-05
3.19345e-05
5.07125e-05
5.52052e-05
-3.86608e-05
-2.71022e-05
-1.73238e-06
4.0044e-05
-1.28824e-05
1.15236e-05
2.75385e-05
1.51008e-05
2.02364e-05
3.27823e-05
-0.000103584
-2.37207e-05
5.62994e-05
-3.56045e-05
-8.56415e-05
0.000101618
-2.90701e-05
2.15792e-05
-5.19507e-05
6.29341e-06
-5.95588e-05
3.80201e-06
-4.0116e-05
2.2179e-05
-9.73779e-06
6.35826e-05
-2.76126e-05
-2.54388e-05
9.06731e-05
-5.55889e-05
-3.51446e-05
1.47806e-05
-2.3094e-05
3.4685e-05
-4.10147e-05
-1.09316e-05
2.98404e-05
3.45644e-05
-4.7846e-05
-5.78742e-05
-3.72987e-05
3.5862e-05
-1.02364e-05
-1.76755e-05
3.83476e-05
4.55044e-06
-3.0726e-05
-6.31746e-05
6.19015e-06
-5.68883e-05
0.000120349
-0.000117729
-6.80868e-05
1.01868e-05
-1.02157e-05
2.82162e-05
-1.9602e-05
-6.25581e-06
3.50752e-05
9.93151e-06
-5.96482e-05
5.40573e-05
-2.97572e-05
-7.25733e-07
-9.39076e-06
-2.64802e-05
5.89007e-05
9.35846e-05
7.95011e-05
-1.6892e-05
-6.82927e-05
-7.77043e-05
4.75619e-05
-1.31782e-06
1.17443e-05
5.16303e-05
-6.31507e-05
2.21428e-05
3.4573e-05
-3.89622e-05
4.92728e-05
9.85351e-06
-2.73692e-05
-7.18009e-05
-2.20747e-06
9.41206e-06
5.68596e-05
-2.01401e-05
-8.62195e-06
7.09039e-06
9.574e-07
-2.91977e-05
-3.67721e-05
9.87202e-07
-7.08329e-06
-7.7707e-05
4.07125e-05
2.28041e-05
-2.33529e-05
-2.82733e-05
6.35593e-06
-3.10615e-05
-2.37789e-05
5.87656e-05
3.77756e-05
-8.88545e-05
1.88741e-05
2.82153e-05
2.42067e-05
-1.97265e-05
3.13711e-05
2.67721e-05
-2.78915e-05
-1.14408e-05
4.39797e-05
-1.84722e-05
6.28969e-06
-9.41672e-06
3.67081e-05
-1.65389e-05
-2.21909e-05
-3.26345e-05
2.11543e-05
-9.05292e-05
-2.25268e-05
7.17817e-06
-1.67803e-05
-5.12952e-05
-4.15264e-05
3.02581e-05
1.87579e-05
1.34513e-05
6.7997e-05
0.000103677
-2.68695e-05
-5.6222e-05
-7.36851e-06
-8.72905e-06
-8.22102e-06
-0.000119192
3.07657e-05
9.97081e-05
7.93554e-05
2.35236e-05
2.89525e-06
3.23562e-05
6.61914e-06
-1.27412e-05
-1.12366e-05
3.50201e-06
6.08938e-05
-6.73463e-06
5.99328e-05
-9.10752e-06
-4.93438e-05
-1.25011e-05
-1.79207e-05
3.41784e-05
-3.37979e-05
7.39505e-06
5.9453e-05
0.000102923
1.58972e-05
2.07382e-06
6.60841e-05
-5.49526e-05
-6.422e-05
4.83578e-06
5.86056e-05
-3.5362e-05
-0.000113618
-3.21862e-05
8.25268e-06
3.03723e-05
4.09456e-06
1.25879e-05
-2.57908e-05
4.02995e-06
-1.99422e-05
-0.000115459
-8.30356e-06
2.34316e-05
1.67681e-05
-9.89949e-06
-1.77941e-05
3.41057e-05
5.38381e-05
-8.89646e-07
-3.26859e-05
-1.44825e-05
1.08392e-05
2.86294e-05
1.41952e-05
-1.13221e-05
4.36332e-05
-9.70031e-06
4.36599e-05
-6.25988e-06
-6.49595e-05
8.33401e-05
7.37351e-06
-2.3359e-05
-5.29964e-05
8.21927e-06
-7.67079e-05
-5.47341e-05
1.6998e-05
-2.35287e-05
6.93041e-05
-5.89243e-05
-1.58966e-05
-3.79665e-06
-4.36553e-05
1.75042e-06
6.90867e-06
-1.56341e-05
-1.26812e-05
-6.3139e-06
-2.87476e-05
6.35837e-05
-1.2737e-05
2.98877e-05
-1.94586e-05
0.00010666
-6.87316e-05
2.64239e-06
7.97831e-05
-7.28983e-05
-2.11628e-05
-1.82888e-06
-5.65499e-06
-3.07194e-05
-1.6659e-07
6.13097e-05
-4.53606e-05
-3.93693e-06
2.74231e-05
5.10004e-05
6.30144e-06
2.15231e-05
-5.9315e-05
-4.52384e-05
-4.56912e-05
-4.39741e-05
-2.38913e-05
-5.03426e-05
-2.24269e-05
-6.28912e-05
1.11948e-05
0.000117078
1.08852e-05
1.6035e-06
7.11577e-06
-1.2483e-05
-9.79608e-05
1.17274e-05
-2.43352e-05
-6.52868e-05
-4.5734e-05
9.77496e-05
-2.84506e-05
2.46854e-05
2.89709e-05
-3.39509e-05
9.19254e-05
-5.06385e-05
-3.13994e-05
4.17698e-07
2.26257e-05
5.23943e-05
-4.6351e-05
3.01981e-06
-7.25876e-05
3.62425e-05
4.53799e-05
5.10277e-05
4.9612e-05
1.14613e-05
6.3146e-06
1.38574e-05
1.41445e-06
1.35631e-05
-5.94304e-05
-5.26088e-05
-3.14449e-05
3.68987e-05
-1.13063e-06
4.39328e-06
1.65973e-05
1.01094e-05
-4.56735e-05
-5.67071e-05
-2.16054e-05
3.75346e-06
3.02104e-05
2.47175e-05
-3.70545e-05
-4.6816e-05
-8.03263e-05
-3.89202e-05
8.46451e-05
4.35195e-05
1.98982e-05
-8.17585e-06
-6.95745e-06
-5.38758e-05
3.5844e-05
-6.18508e-05
7.90433e-05
-1.59479e-05
-3.99172e-05
-6.26171e-05
3.51215e-05
5.15337e-05
1.97056e-06
-3.47046e-06
-9.94944e-06
5.45724e-05
-4.35947e-05
-3.20035e-05
3.58507e-05
-2.33698e-05
-7.19388e-06
3.16277e-05
-2.36784e-05
4.79083e-05
6.11598e-05
-1.5019e-05
5.83358e-05
-1.60113e-05
-5.55501e-05
-4.11179e-05
3.92948e-05
8.73662e-05
-9.01846e-06
2.39066e-05
5.31228e-05
-2.11818e-06
3.75926e-05
-6.11143e-05
-5.37825e-05
4.7565e-05
-2.97432e-05
-7.41602e-05
-1.30141e-05
3.82983e-06
-4.95901e-05
-1.00627e-05
1.48062e-05
3.36743e-06
-4.77561e-05
-3.26619e-05
4.77943e-06
4.4096e-05
4.0431e-05
-4.65775e-05
-4.65789e-05
9.95421e-06
6.58096e-05
1.77752e-05
-1.76018e-05
-0.000102062
4.74707e-05
-2.01664e-05
-7.77561e-06
-8.79902e-06
4.50331e-05
-5.59166e-06
-5.70054e-05
-1.93107e-05
-3.39666e-05
4.75904e-05
2.16508e-05
-2.22091e-05
-2.47788e-05
-2.5415e-05
-5.89027e-06
-1.15657e-05
-4.13181e-05
-4.02359e-05
1.20583e-06
-4.48263e-05
2.04251e-05
3.3807e-06
-2.82915e-05
3.01643e-05
9.34873e-06
-6.71298e-05
-4.05738e-05
7.09337e-05
-3.39553e-05
-2.67512e-05
2.17742e-05
1.56355e-05
1.44392e-05
-8.90205e-06
-1.1994e-05
1.44325e-05
8.7028e-05
-9.70089e-07
1.24228e-05
-5.59279e-05
-1.92774e-05
3.90809e-05
3.06917e-06
-4.05498e-05
7.56653e-06
6.72848e-05
3.9499e-05
-7.47541e-05
-3.48641e-05
2.46888e-05
-5.16149e-05
3.76673e-06
-4.08548e-05
-1.83191e-05
8.32831e-05
-3.53504e-05
-3.56362e-05
-9.10193e-06
-2.37038e-05
-7.61581e-05
-4.31733e-05
-3.44524e-05
3.03324e-05
-5.93208e-05
-4.43431e-05
-1.38483e-05
2.80144e-05
4.43456e-05
7.11204e-06
-4.18397e-07
-3.37955e-05
5.63175e-05
4.62112e-05
-7.51619e-05
0.000106831
-4.85466e-05
-1.38165e-05
-8.41217e-07
-1.47608e-05
-6.57004e-05