# vtk DataFile Version 1.0
Net Charge Density
ASCII
DATASET STRUCTURED_POINTS
DIMENSIONS 256 128 1
ORIGIN 0 0 0
SPACING 0.15625 0.15625 1
POINT_DATA 32768
SCALARS rhonet float
LOOKUP_TABLE default
-8.89965e-05,1,1,1
-0.000164431,1,1,2
6.73248e-05,1,1,3
0.000180924,1,1,4
3.86301e-06,1,1,5
0.000191473,1,1,6
3.31743e-05,1,1,7
-3.29297e-05,1,1,8
0.000211425,1,1,9
0.00020405,1,1,10
2.30238e-05,1,1,11
0.000279595,1,1,12
0.000127751,1,1,13
-0.000183836,1,1,14
-0.000216214,1,1,15
0.000243326,1,1,16
0.000142679,1,1,17
-9.87002e-05,1,1,18
-2.87002e-05,1,1,19
2.38952e-05,1,1,20
4.87664e-06,1,1,21
0.000126141,1,1,22
-8.7773e-05,1,1,23
5.35581e-05,1,1,24
9.73925e-05,1,1,25
2.47741e-05,1,1,26
7.28207e-05,1,1,27
7.3313e-05,1,1,28
0.000266093,1,1,29
4.45559e-05,1,1,30
-0.000187995,1,1,31
-0.000141228,1,1,32
0.00013852,1,1,33
0.00019782,1,1,34
4.20046e-05,1,1,35
0.000104592,1,1,36
0.000146124,1,1,37
-7.05898e-05,1,1,38
3.89592e-05,1,1,39
2.23195e-05,1,1,40
0.000178941,1,1,41
0.00013508,1,1,42
8.85106e-05,1,1,43
0.000102749,1,1,44
0.000125256,1,1,45
6.33777e-06,1,1,46
2.51116e-05,1,1,47
8.20986e-05,1,1,48
5.3151e-05,1,1,49
0.000119897,1,1,50
0.000161602,1,1,51
-1.11042e-05,1,1,52
0.00015061,1,1,53
0.00017972,1,1,54
-9.16779e-05,1,1,55
-3.29586e-05,1,1,56
-3.99988e-05,1,1,57
0.000187686,1,1,58
0.000135206,1,1,59
0.000108327,1,1,60
-0.000173155,1,1,61
0.000276285,1,1,62
0.000165613,1,1,63
-3.8438e-05,1,1,64
-0.000121113,1,1,65
5.01912e-05,1,1,66
-8.66074e-05,1,1,67
0.00015755,1,1,68
1.51979e-05,1,1,69
-7.60974e-05,1,1,70
-6.64492e-05,1,1,71
-0.000151567,1,1,72
-3.41681e-05,1,1,73
0.000301609,1,1,74
7.66139e-05,1,1,75
-4.76977e-05,1,1,76
6.83875e-05,1,1,77
0.000145776,1,1,78
6.34149e-05,1,1,79
1.53657e-05,1,1,80
-0.000111346,1,1,81
-6.43473e-05,1,1,82
0.000307742,1,1,83
0.000107895,1,1,84
0.000156533,1,1,85
0.000151515,1,1,86
0.00018837,1,1,87
-0.000153581,1,1,88
0.000203115,1,1,89
0.000314539,1,1,90
8.47192e-05,1,1,91
-5.67469e-05,1,1,92
3.6509e-06,1,1,93
4.21898e-05,1,1,94
-1.1771e-05,1,1,95
0.000185573,1,1,96
-6.01255e-05,1,1,97
9.25146e-05,1,1,98
-0.000105055,1,1,99
0.000513904,1,1,100
0.00018112,1,1,101
-4.06464e-05,1,1,102
0.000103039,1,1,103
-1.57754e-05,1,1,104
1.81859e-05,1,1,105
0.000185247,1,1,106
1.56634e-05,1,1,107
-3.3039e-05,1,1,108
3.95841e-05,1,1,109
-5.65071e-05,1,1,110
9.67323e-05,1,1,111
0.000135004,1,1,112
-7.10147e-05,1,1,113
-0.000116246,1,1,114
-0.000293087,1,1,115
-1.20505e-05,1,1,116
0.000196575,1,1,117
0.000161801,1,1,118
1.39737e-05,1,1,119
-0.000188641,1,1,120
5.74633e-05,1,1,121
1.23907e-05,1,1,122
6.46163e-05,1,1,123
4.70174e-05,1,1,124
1.39865e-05,1,1,125
-2.69527e-05,1,1,126
8.53457e-05,1,1,127
2.44341e-05,1,1,128
0.00018368,1,1,129
2.4826e-05,1,1,130
3.65494e-05,1,1,131
0.000122553,1,1,132
9.48426e-05,1,1,133
-3.01064e-05,1,1,134
9.04195e-05,1,1,135
5.78713e-05,1,1,136
0.000279149,1,1,137
0.000120272,1,1,138
0.000106484,1,1,139
-0.000217123,1,1,140
-4.58071e-06,1,1,141
6.54793e-05,1,1,142
-4.92646e-06,1,1,143
4.93006e-05,1,1,144
-3.99717e-05,1,1,145
0.00010235,1,1,146
0.00016881,1,1,147
-3.91197e-05,1,1,148
3.76489e-05,1,1,149
0.000252592,1,1,150
-8.82368e-05,1,1,151
-4.82018e-05,1,1,152
0.000177523,1,1,153
0.000274355,1,1,154
0.000128818,1,1,155
6.23011e-05,1,1,156
0.000135928,1,1,157
8.18376e-06,1,1,158
4.77403e-05,1,1,159
6.06261e-05,1,1,160
0.000130789,1,1,161
0.000107803,1,1,162
-8.37164e-05,1,1,163
9.65771e-05,1,1,164
-5.18437e-05,1,1,165
-0.000102245,1,1,166
0.000160798,1,1,167
0.000218389,1,1,168
0.000229294,1,1,169
4.46856e-05,1,1,170
-5.0218e-05,1,1,171
-2.03366e-06,1,1,172
-6.9323e-06,1,1,173
-3.22645e-05,1,1,174
9.88853e-05,1,1,175
0.000118853,1,1,176
0.000188594,1,1,177
-3.82813e-05,1,1,178
-0.000114186,1,1,179
9.30813e-05,1,1,180
0.000170248,1,1,181
0.000170585,1,1,182
-5.9947e-05,1,1,183
-0.000114894,1,1,184
3.0112e-05,1,1,185
0.000124835,1,1,186
0.000147015,1,1,187
0.000125632,1,1,188
0.000105981,1,1,189
0.000260402,1,1,190
0.000187681,1,1,191
0.000105557,1,1,192
7.29121e-05,1,1,193
-8.07224e-05,1,1,194
-0.000155445,1,1,195
0.000304989,1,1,196
0.000208996,1,1,197
3.35152e-05,1,1,198
0.000190698,1,1,199
6.13404e-06,1,1,200
7.67177e-06,1,1,201
1.51946e-05,1,1,202
0.000192278,1,1,203
8.82994e-05,1,1,204
-0.000104467,1,1,205
0.00014671,1,1,206
-5.74148e-05,1,1,207
-8.37957e-06,1,1,208
-8.24681e-05,1,1,209
0.000302362,1,1,210
-2.56733e-05,1,1,211
-0.00012002,1,1,212
0.00013921,1,1,213
0.000212545,1,1,214
-6.37467e-06,1,1,215
-5.47464e-05,1,1,216
3.51253e-05,1,1,217
5.77911e-05,1,1,218
4.46554e-05,1,1,219
0.000108325,1,1,220
-9.93182e-05,1,1,221
-0.000142599,1,1,222
0.000304249,1,1,223
8.57088e-05,1,1,224
-0.000139695,1,1,225
0.000208727,1,1,226
-8.71234e-05,1,1,227
6.99728e-05,1,1,228
-0.00020923,1,1,229
3.65512e-05,1,1,230
0.000211047,1,1,231
-0.000121397,1,1,232
-8.78272e-05,1,1,233
0.000243595,1,1,234
0.000104742,1,1,235
7.16866e-05,1,1,236
0.000175833,1,1,237
-8.4169e-05,1,1,238
0.000117093,1,1,239
0.000292925,1,1,240
3.00537e-05,1,1,241
-0.000198833,1,1,242
0.000113081,1,1,243
8.61073e-05,1,1,244
0.000117134,1,1,245
0.000126007,1,1,246
4.07925e-05,1,1,247
2.43268e-05,1,1,248
0.000117619,1,1,249
-7.49785e-06,1,1,250
6.64266e-05,1,1,251
-0.0001827,1,1,252
-1.10205e-05,1,1,253
-0.000116789,1,1,254
-5.03096e-05,1,1,255
0.000113211,1,1,256
9.38511e-05,1,2,1
7.11065e-06,1,2,2
-1.07253e-06,1,2,3
-0.000114282,1,2,4
1.30755e-05,1,2,5
-9.59646e-05,1,2,6
-0.00018783,1,2,7
-1.47219e-05,1,2,8
0.000141969,1,2,9
-0.000105543,1,2,10
-2.11766e-05,1,2,11
0.000159347,1,2,12
-6.05982e-05,1,2,13
-0.000104908,1,2,14
-0.000191294,1,2,15
-3.15245e-05,1,2,16
2.67868e-05,1,2,17
-8.83366e-05,1,2,18
2.81922e-05,1,2,19
6.03006e-05,1,2,20
-2.11118e-05,1,2,21
-0.000153984,1,2,22
-6.7096e-06,1,2,23
-0.000122243,1,2,24
-5.28994e-05,1,2,25
-0.000213783,1,2,26
8.63425e-05,1,2,27
2.4384e-05,1,2,28
1.32923e-06,1,2,29
-1.46832e-05,1,2,30
-4.76749e-05,1,2,31
0.000114568,1,2,32
-3.24089e-05,1,2,33
-5.61227e-06,1,2,34
-1.98612e-05,1,2,35
-3.69214e-05,1,2,36
-3.48245e-06,1,2,37
-0.000116264,1,2,38
-5.2555e-05,1,2,39
-1.27149e-06,1,2,40
-2.64917e-05,1,2,41
-0.000104853,1,2,42
-3.6025e-05,1,2,43
8.13336e-05,1,2,44
-0.000105781,1,2,45
-0.000144953,1,2,46
7.52908e-05,1,2,47
4.11216e-05,1,2,48
-2.63747e-05,1,2,49
3.98703e-05,1,2,50
-9.31576e-05,1,2,51
4.86266e-05,1,2,52
8.56002e-07,1,2,53
4.31901e-06,1,2,54
-0.000119127,1,2,55
-7.30145e-05,1,2,56
6.05754e-05,1,2,57
2.74994e-05,1,2,58
-0.000101008,1,2,59
6.03885e-05,1,2,60
-2.35748e-05,1,2,61
-0.000135273,1,2,62
-4.44648e-06,1,2,63
1.76303e-05,1,2,64
-0.000143069,1,2,65
5.91766e-05,1,2,66
-6.20284e-06,1,2,67
4.06073e-05,1,2,68
8.06635e-05,1,2,69
-7.99191e-05,1,2,70
3.64548e-05,1,2,71
-5.82091e-05,1,2,72
-9.32382e-06,1,2,73
5.90805e-05,1,2,74
4.19957e-05,1,2,75
3.69132e-05,1,2,76
-4.19617e-05,1,2,77
-5.43676e-05,1,2,78
3.41021e-05,1,2,79
-4.67338e-05,1,2,80
-0.0001537,1,2,81
-6.71794e-05,1,2,82
6.0031e-05,1,2,83
-4.68122e-05,1,2,84
-3.43906e-05,1,2,85
-8.82396e-05,1,2,86
4.55751e-05,1,2,87
-0.000176053,1,2,88
1.12818e-05,1,2,89
-0.00015407,1,2,90
-0.000127912,1,2,91
-9.47623e-05,1,2,92
-6.21468e-05,1,2,93
-4.80892e-05,1,2,94
5.24877e-05,1,2,95
-3.36824e-06,1,2,96
-0.000122984,1,2,97
4.30979e-05,1,2,98
-0.000154295,1,2,99
6.53998e-05,1,2,100
-0.00010901,1,2,101
-7.15227e-05,1,2,102
-5.46537e-05,1,2,103
0.000123682,1,2,104
-2.69081e-05,1,2,105
3.08173e-05,1,2,106
-0.000163154,1,2,107
0.000118408,1,2,108
-4.62125e-05,1,2,109
-0.000235137,1,2,110
-5.79351e-05,1,2,111
-7.17839e-05,1,2,112
-0.000163478,1,2,113
5.96767e-05,1,2,114
1.61465e-05,1,2,115
-7.24099e-05,1,2,116
2.98856e-05,1,2,117
-4.80516e-05,1,2,118
-4.58631e-05,1,2,119
-7.19619e-05,1,2,120
-3.38637e-05,1,2,121
-0.000109086,1,2,122
7.39485e-05,1,2,123
9.90359e-05,1,2,124
3.7502e-05,1,2,125
8.90732e-05,1,2,126
1.56957e-05,1,2,127
-6.02792e-05,1,2,128
2.84293e-05,1,2,129
-7.58183e-05,1,2,130
-6.37145e-05,1,2,131
0.000168836,1,2,132
-6.8859e-05,1,2,133
-0.000162257,1,2,134
2.27815e-05,1,2,135
1.59431e-06,1,2,136
-7.4554e-05,1,2,137
-0.000121428,1,2,138
-1.7772e-06,1,2,139
-0.000190662,1,2,140
0.00010786,1,2,141
0.000110056,1,2,142
-2.80037e-05,1,2,143
-1.88081e-05,1,2,144
-0.000179983,1,2,145
-8.35257e-05,1,2,146
9.678e-05,1,2,147
8.11392e-06,1,2,148
6.51625e-05,1,2,149
0.000115118,1,2,150
-8.75529e-05,1,2,151
-5.66704e-05,1,2,152
4.48849e-05,1,2,153
-0.000137129,1,2,154
-9.15062e-05,1,2,155
-0.000117078,1,2,156
7.77818e-05,1,2,157
-6.16324e-05,1,2,158
-7.80417e-05,1,2,159
-4.38609e-05,1,2,160
6.10383e-05,1,2,161
-0.000105036,1,2,162
5.42327e-05,1,2,163
3.28156e-05,1,2,164
8.62764e-05,1,2,165
-5.37983e-05,1,2,166
-4.06351e-05,1,2,167
1.56839e-05,1,2,168
-4.0281e-05,1,2,169
-0.000211141,1,2,170
2.38117e-05,1,2,171
0.000203273,1,2,172
-1.50738e-05,1,2,173
4.13631e-05,1,2,174
-8.67897e-05,1,2,175
-6.52751e-05,1,2,176
3.89041e-05,1,2,177
-0.000102638,1,2,178
1.51226e-05,1,2,179
-4.97353e-05,1,2,180
-2.76992e-05,1,2,181
2.26526e-05,1,2,182
-3.52252e-05,1,2,183
-0.000176033,1,2,184
-0.000125343,1,2,185
-3.13106e-05,1,2,186
-3.65428e-07,1,2,187
-0.000170566,1,2,188
-4.75531e-05,1,2,189
-5.78196e-05,1,2,190
-0.000183783,1,2,191
-2.11981e-05,1,2,192
5.8874e-05,1,2,193
5.74114e-06,1,2,194
-3.58101e-05,1,2,195
-5.21971e-06,1,2,196
-8.06734e-05,1,2,197
-0.000193738,1,2,198
-0.000104422,1,2,199
-3.91724e-05,1,2,200
4.23506e-05,1,2,201
-9.05199e-05,1,2,202
-7.62015e-05,1,2,203
-8.52777e-06,1,2,204
0.000146161,1,2,205
-0.000152343,1,2,206
-5.96849e-05,1,2,207
9.51998e-05,1,2,208
-0.000116926,1,2,209
9.23373e-05,1,2,210
-9.78988e-05,1,2,211
-1.47185e-05,1,2,212
0.000151847,1,2,213
2.37791e-05,1,2,214
-7.93701e-05,1,2,215
-2.82909e-05,1,2,216
-1.92877e-05,1,2,217
-2.44337e-05,1,2,218
-0.000142313,1,2,219
0.00010553,1,2,220
4.18114e-05,1,2,221
1.36646e-05,1,2,222
-1.15992e-05,1,2,223
-2.04687e-05,1,2,224
-2.06288e-07,1,2,225
-1.97629e-05,1,2,226
2.1121e-05,1,2,227
0.000109334,1,2,228
-0.000261438,1,2,229
4.28509e-05,1,2,230
4.00639e-05,1,2,231
-7.66998e-05,1,2,232
-6.17963e-05,1,2,233
-1.02727e-05,1,2,234
-0.000159574,1,2,235
-8.18922e-05,1,2,236
7.35666e-05,1,2,237
-4.22966e-05,1,2,238
9.2315e-06,1,2,239
-1.98811e-05,1,2,240
9.94559e-06,1,2,241
-8.87434e-07,1,2,242
-5.61636e-05,1,2,243
-3.99554e-05,1,2,244
-5.35059e-05,1,2,245
-0.000102719,1,2,246
9.00064e-05,1,2,247
-0.000219845,1,2,248
-0.000120905,1,2,249
-5.90221e-05,1,2,250
4.97606e-05,1,2,251
-3.80764e-05,1,2,252
-1.36702e-05,1,2,253
-2.83029e-06,1,2,254
-8.34793e-05,1,2,255
1.19545e-05,1,2,256
-7.01746e-05,1,3,1
-3.17382e-05,1,3,2
1.34769e-05,1,3,3
5.83422e-05,1,3,4
-0.000137647,1,3,5
-8.99401e-05,1,3,6
0.000151386,1,3,7
1.51157e-05,1,3,8
-6.14114e-06,1,3,9
-0.000129065,1,3,10
3.11777e-05,1,3,11
0.000173843,1,3,12
-0.000137103,1,3,13
4.43441e-05,1,3,14
0.000100966,1,3,15
9.51369e-06,1,3,16
9.34245e-06,1,3,17
4.56321e-05,1,3,18
-4.52996e-05,1,3,19
0.0002318,1,3,20
-1.65905e-05,1,3,21
-9.65688e-05,1,3,22
0.000247102,1,3,23
-6.24571e-05,1,3,24
-9.62125e-05,1,3,25
4.41667e-05,1,3,26
-6.78145e-05,1,3,27
-9.39947e-05,1,3,28
-3.89075e-05,1,3,29
6.94155e-05,1,3,30
5.60172e-05,1,3,31
3.48886e-05,1,3,32
-0.000183194,1,3,33
5.50053e-05,1,3,34
9.5517e-05,1,3,35
2.66584e-05,1,3,36
-3.39593e-05,1,3,37
0.000120549,1,3,38
5.00306e-06,1,3,39
-7.52759e-05,1,3,40
0.000127643,1,3,41
-7.99592e-05,1,3,42
-8.11344e-05,1,3,43
-0.000202427,1,3,44
6.17066e-05,1,3,45
-9.95558e-05,1,3,46
-5.43229e-05,1,3,47
-5.94817e-05,1,3,48
-9.60128e-05,1,3,49
0.000116062,1,3,50
-0.000147444,1,3,51
1.14926e-05,1,3,52
-7.4331e-05,1,3,53
0.000155804,1,3,54
7.66397e-05,1,3,55
-6.99933e-05,1,3,56
7.37107e-05,1,3,57
-2.04374e-05,1,3,58
-8.95964e-05,1,3,59
9.62401e-05,1,3,60
-3.38344e-05,1,3,61
-3.49053e-05,1,3,62
4.17584e-05,1,3,63
0.000162894,1,3,64
3.63599e-05,1,3,65
8.77914e-05,1,3,66
-3.58354e-05,1,3,67
-2.20584e-05,1,3,68
-3.02261e-06,1,3,69
-1.37129e-05,1,3,70
3.04272e-05,1,3,71
5.12836e-05,1,3,72
-1.66396e-05,1,3,73
-6.64196e-05,1,3,74
-0.000106226,1,3,75
-3.41022e-05,1,3,76
-0.000114615,1,3,77
-1.21311e-05,1,3,78
2.69824e-05,1,3,79
0.000152796,1,3,80
4.25635e-05,1,3,81
-6.62486e-05,1,3,82
1.30313e-05,1,3,83
0.000125127,1,3,84
-3.36289e-05,1,3,85
0.000125026,1,3,86
-3.74272e-05,1,3,87
-0.000105816,1,3,88
-9.70287e-05,1,3,89
0.000180479,1,3,90
2.01132e-05,1,3,91
3.3197e-05,1,3,92
4.16911e-05,1,3,93
0.000125363,1,3,94
-0.000130524,1,3,95
0.000146988,1,3,96
3.85046e-05,1,3,97
-9.22033e-05,1,3,98
-5.5274e-06,1,3,99
-2.88952e-05,1,3,100
-7.75093e-05,1,3,101
-0.00016559,1,3,102
-6.21092e-05,1,3,103
8.7323e-05,1,3,104
0.00013541,1,3,105
-5.54553e-05,1,3,106
8.27907e-05,1,3,107
8.54187e-05,1,3,108
0.000115635,1,3,109
-8.62868e-05,1,3,110
4.55809e-05,1,3,111
0.000119125,1,3,112
0.00018409,1,3,113
2.40584e-06,1,3,114
0.000137161,1,3,115
5.34616e-05,1,3,116
5.2261e-05,1,3,117
5.68457e-05,1,3,118
0.000167474,1,3,119
-5.51221e-05,1,3,120
-1.33796e-05,1,3,121
-4.05211e-05,1,3,122
-0.000125639,1,3,123
6.856e-05,1,3,124
-1.32683e-05,1,3,125
3.22424e-05,1,3,126
-2.87497e-05,1,3,127
-4.65667e-05,1,3,128
-8.74824e-05,1,3,129
-7.05924e-05,1,3,130
7.68015e-05,1,3,131
-9.855e-05,1,3,132
4.49251e-05,1,3,133
-7.86618e-05,1,3,134
9.82087e-05,1,3,135
-0.000145105,1,3,136
-0.000182992,1,3,137
0.000104832,1,3,138
-1.31571e-05,1,3,139
-7.55027e-05,1,3,140
0.000210964,1,3,141
-6.38554e-05,1,3,142
8.74363e-05,1,3,143
0.000118602,1,3,144
-0.000142688,1,3,145
0.000153399,1,3,146
0.000188842,1,3,147
-0.000133898,1,3,148
-3.0449e-05,1,3,149
-8.05343e-05,1,3,150
-1.98924e-05,1,3,151
-2.80344e-05,1,3,152
5.00239e-05,1,3,153
-0.000123371,1,3,154
-0.000185927,1,3,155
2.17025e-05,1,3,156
2.22621e-05,1,3,157
-4.22013e-05,1,3,158
8.28361e-05,1,3,159
-0.000114715,1,3,160
-1.43953e-05,1,3,161
-3.40616e-05,1,3,162
-0.00010146,1,3,163
3.65768e-05,1,3,164
-5.14565e-05,1,3,165
0.000108135,1,3,166
-1.38624e-05,1,3,167
-8.48663e-05,1,3,168
1.70885e-05,1,3,169
0.000166329,1,3,170
4.82557e-05,1,3,171
-0.000137476,1,3,172
-0.000130724,1,3,173
-9.48517e-06,1,3,174
4.5335e-05,1,3,175
-0.000128979,1,3,176
5.08633e-05,1,3,177
1.61452e-05,1,3,178
-0.000157478,1,3,179
0.000116752,1,3,180
-5.86527e-05,1,3,181
-9.88634e-06,1,3,182
2.70257e-05,1,3,183
5.98143e-05,1,3,184
5.8868e-05,1,3,185
7.47677e-05,1,3,186
-2.03855e-05,1,3,187
6.78025e-05,1,3,188
-9.19695e-05,1,3,189
-5.69108e-06,1,3,190
-0.000144547,1,3,191
0.00017434,1,3,192
-1.03792e-05,1,3,193
-3.04007e-06,1,3,194
3.54416e-05,1,3,195
7.37602e-05,1,3,196
5.43426e-05,1,3,197
-7.24926e-05,1,3,198
-4.39929e-05,1,3,199
-3.6134e-05,1,3,200
2.63092e-05,1,3,201
0.000149056,1,3,202
6.77109e-05,1,3,203
-0.000108176,1,3,204
2.75206e-07,1,3,205
-0.000102251,1,3,206
0.000191155,1,3,207
-4.92786e-07,1,3,208
2.48827e-05,1,3,209
1.41291e-05,1,3,210
-5.52993e-05,1,3,211
-0.000112945,1,3,212
1.64523e-05,1,3,213
5.99896e-05,1,3,214
-0.000104574,1,3,215
-2.01634e-05,1,3,216
-2.06161e-05,1,3,217
-2.06784e-05,1,3,218
2.71753e-05,1,3,219
3.2953e-05,1,3,220
9.95218e-05,1,3,221
-4.56781e-05,1,3,222
-3.4027e-06,1,3,223
3.48248e-05,1,3,224
5.44942e-05,1,3,225
4.12602e-05,1,3,226
0.000162435,1,3,227
-7.54968e-05,1,3,228
-7.04981e-05,1,3,229
-8.70903e-07,1,3,230
0.000148986,1,3,231
8.3242e-05,1,3,232
6.13602e-05,1,3,233
7.60482e-05,1,3,234
-1.61112e-05,1,3,235
-8.15617e-06,1,3,236
0.000102876,1,3,237
4.52762e-05,1,3,238
3.04845e-06,1,3,239
1.02993e-05,1,3,240
9.89579e-05,1,3,241
-6.89172e-05,1,3,242
3.38095e-05,1,3,243
7.08606e-05,1,3,244
-5.00829e-05,1,3,245
-0.00016035,1,3,246
2.85004e-05,1,3,247
-3.94692e-05,1,3,248
0.000187724,1,3,249
0.000159625,1,3,250
2.64982e-05,1,3,251
9.43409e-05,1,3,252
4.62711e-05,1,3,253
5.01331e-06,1,3,254
-5.53369e-06,1,3,255
0.00016653,1,3,256
-0.000108887,1,4,1
6.76438e-05,1,4,2
7.97851e-05,1,4,3
2.64239e-05,1,4,4
-3.33125e-05,1,4,5
-3.69875e-05,1,4,6
0.000154182,1,4,7
-0.000138618,1,4,8
-8.34803e-05,1,4,9
3.13434e-05,1,4,10
1.95624e-06,1,4,11
7.74231e-05,1,4,12
-8.67886e-05,1,4,13
-0.000106184,1,4,14
0.000124943,1,4,15
-3.2715e-06,1,4,16
3.75252e-05,1,4,17
9.61651e-05,1,4,18
-6.26928e-05,1,4,19
0.00019247,1,4,20
1.74856e-07,1,4,21
-0.000103404,1,4,22
-1.46427e-05,1,4,23
-7.0279e-05,1,4,24
0.000126966,1,4,25
-4.42556e-05,1,4,26
-3.1238e-05,1,4,27
-6.08347e-05,1,4,28
0.000185489,1,4,29
6.5947e-06,1,4,30
-2.88459e-05,1,4,31
2.55718e-06,1,4,32
-4.19506e-05,1,4,33
2.88814e-05,1,4,34
-7.87327e-05,1,4,35
-0.000245335,1,4,36
-4.55743e-06,1,4,37
1.41899e-06,1,4,38
-2.96718e-05,1,4,39
-0.000100693,1,4,40
6.97646e-05,1,4,41
9.95676e-05,1,4,42
2.10069e-05,1,4,43
9.20027e-05,1,4,44
0.000134083,1,4,45
6.70762e-06,1,4,46
-3.21708e-05,1,4,47
-1.05817e-05,1,4,48
0.000141856,1,4,49
-7.66044e-05,1,4,50
-3.02678e-05,1,4,51
-9.20404e-05,1,4,52
-5.64924e-05,1,4,53
-6.99647e-05,1,4,54
-1.04168e-06,1,4,55
-3.1268e-05,1,4,56
-1.03473e-05,1,4,57
-1.91764e-05,1,4,58
6.47351e-06,1,4,59
-1.19123e-05,1,4,60
1.19001e-05,1,4,61
-0.00012422,1,4,62
-0.000133447,1,4,63
2.95368e-05,1,4,64
2.01785e-05,1,4,65
7.01152e-05,1,4,66
-6.80157e-05,1,4,67
0.000112859,1,4,68
-5.64292e-05,1,4,69
-0.000102792,1,4,70
3.18148e-05,1,4,71
9.65786e-05,1,4,72
0.000142974,1,4,73
-0.00021521,1,4,74
-2.5156e-05,1,4,75
0.000155176,1,4,76
-7.08781e-05,1,4,77
-1.83471e-06,1,4,78
-9.00575e-05,1,4,79
-6.12383e-05,1,4,80
3.06271e-05,1,4,81
-2.73809e-05,1,4,82
0.000121417,1,4,83
-7.09144e-06,1,4,84
-0.00013656,1,4,85
5.42094e-05,1,4,86
-8.18307e-06,1,4,87
-8.82484e-05,1,4,88
-4.20748e-06,1,4,89
6.04575e-05,1,4,90
1.07277e-06,1,4,91
-0.000111192,1,4,92
-8.29694e-05,1,4,93
-0.000135973,1,4,94
-2.61227e-05,1,4,95
7.20009e-05,1,4,96
-0.000131597,1,4,97
2.96028e-05,1,4,98
2.28286e-05,1,4,99
-6.37447e-05,1,4,100
0.00025458,1,4,101
-1.29698e-05,1,4,102
-0.000103429,1,4,103
-5.66975e-05,1,4,104
-0.000126446,1,4,105
-7.45128e-06,1,4,106
9.49723e-05,1,4,107
-0.000134314,1,4,108
2.41229e-05,1,4,109
-7.84067e-05,1,4,110
9.75836e-05,1,4,111
3.62004e-05,1,4,112
9.45164e-05,1,4,113
2.15506e-05,1,4,114
-2.0613e-05,1,4,115
-3.88102e-05,1,4,116
-0.000148646,1,4,117
0.000226775,1,4,118
9.63692e-05,1,4,119
-7.63235e-05,1,4,120
2.87783e-05,1,4,121
8.77604e-05,1,4,122
-8.39324e-05,1,4,123
-2.85241e-05,1,4,124
0.00010019,1,4,125
-0.000145643,1,4,126
7.6779e-05,1,4,127
4.41063e-05,1,4,128
6.33274e-05,1,4,129
3.54645e-05,1,4,130
-4.7019e-05,1,4,131
6.01049e-05,1,4,132
0.000238689,1,4,133
-1.13718e-05,1,4,134
1.32812e-05,1,4,135
4.61284e-05,1,4,136
9.35653e-05,1,4,137
0.000111443,1,4,138
6.89398e-05,1,4,139
4.29254e-05,1,4,140
5.71758e-05,1,4,141
-0.000123357,1,4,142
-2.57515e-05,1,4,143
2.09779e-05,1,4,144
-7.54534e-05,1,4,145
-5.305e-05,1,4,146
3.71691e-06,1,4,147
-4.13263e-05,1,4,148
0.000107549,1,4,149
-7.41163e-05,1,4,150
-8.38636e-05,1,4,151
3.15658e-05,1,4,152
-0.000155529,1,4,153
-4.0594e-06,1,4,154
8.19247e-05,1,4,155
7.88568e-05,1,4,156
8.92126e-06,1,4,157
-0.000158251,1,4,158
0.000104388,1,4,159
6.37081e-05,1,4,160
-9.68603e-05,1,4,161
8.47003e-06,1,4,162
-2.26417e-05,1,4,163
2.02247e-05,1,4,164
-5.80791e-05,1,4,165
-4.53768e-05,1,4,166
-0.000111838,1,4,167
-1.58465e-05,1,4,168
4.66688e-05,1,4,169
8.89623e-06,1,4,170
1.84819e-05,1,4,171
0.000207152,1,4,172
1.02581e-05,1,4,173
3.13811e-05,1,4,174
0.000133192,1,4,175
4.81965e-05,1,4,176
4.80295e-05,1,4,177
4.55595e-05,1,4,178
2.47977e-05,1,4,179
0.000182448,1,4,180
-2.09906e-05,1,4,181
-5.10679e-05,1,4,182
-0.000165661,1,4,183
-1.12368e-05,1,4,184
1.81833e-05,1,4,185
-8.31874e-05,1,4,186
-4.87244e-05,1,4,187
-7.1734e-06,1,4,188
6.01704e-06,1,4,189
-7.74843e-05,1,4,190
6.14964e-05,1,4,191
8.30098e-05,1,4,192
5.09631e-05,1,4,193
-9.22196e-06,1,4,194
-1.73695e-05,1,4,195
4.86022e-06,1,4,196
0.000144273,1,4,197
-9.19845e-05,1,4,198
-0.000114029,1,4,199
-6.52781e-05,1,4,200
-1.09933e-05,1,4,201
8.56707e-05,1,4,202
-5.8522e-07,1,4,203
-1.54502e-05,1,4,204
0.000174423,1,4,205
0.000100693,1,4,206
-6.32089e-05,1,4,207
-0.0001399,1,4,208
1.76426e-05,1,4,209
-7.06059e-05,1,4,210
3.54814e-05,1,4,211
-0.000141505,1,4,212
8.52002e-05,1,4,213
7.95143e-05,1,4,214
-0.000127984,1,4,215
1.78963e-05,1,4,216
4.63219e-05,1,4,217
0.000139067,1,4,218
-4.06983e-05,1,4,219
-0.000219237,1,4,220
1.18928e-05,1,4,221
6.91264e-05,1,4,222
0.000103412,1,4,223
3.01389e-05,1,4,224
1.81206e-05,1,4,225
-8.48221e-05,1,4,226
-2.7794e-05,1,4,227
-3.61355e-05,1,4,228
-4.22504e-05,1,4,229
2.46967e-05,1,4,230
-0.000103875,1,4,231
-0.000121247,1,4,232
-1.83885e-05,1,4,233
-5.68031e-05,1,4,234
-0.000118191,1,4,235
-0.000102746,1,4,236
9.25115e-05,1,4,237
2.27753e-05,1,4,238
1.13468e-05,1,4,239
-0.000100635,1,4,240
-2.48379e-05,1,4,241
-9.26373e-05,1,4,242
3.89393e-05,1,4,243
5.67285e-05,1,4,244
-3.55964e-05,1,4,245
7.58739e-05,1,4,246
0.000112991,1,4,247
2.82428e-05,1,4,248
-6.06353e-05,1,4,249
1.33616e-05,1,4,250
-4.061e-05,1,4,251
-1.7771e-05,1,4,252
8.73168e-05,1,4,253
-0.000233145,1,4,254
-0.000133022,1,4,255
0.000155851,1,4,256
-4.31323e-05,1,5,1
-1.5056e-05,1,5,2
-9.80077e-06,1,5,3
-1.25056e-05,1,5,4
3.9553e-05,1,5,5
-6.42722e-05,1,5,6
3.49199e-06,1,5,7
-0.000116738,1,5,8
-9.34431e-06,1,5,9
2.47867e-05,1,5,10
7.4853e-05,1,5,11
-0.000201997,1,5,12
-7.661e-05,1,5,13
5.21202e-05,1,5,14
6.2141e-05,1,5,15
-2.86261e-05,1,5,16
-7.18142e-05,1,5,17
-8.01747e-05,1,5,18
-4.28617e-05,1,5,19
9.60939e-06,1,5,20
-5.67324e-05,1,5,21
-7.19776e-05,1,5,22
-4.84583e-05,1,5,23
1.45549e-05,1,5,24
0.000141872,1,5,25
0.000127031,1,5,26
1.97324e-06,1,5,27
9.00911e-05,1,5,28
5.61429e-05,1,5,29
-0.000165351,1,5,30
3.27242e-05,1,5,31
-6.42668e-05,1,5,32
9.19829e-05,1,5,33
-1.09873e-06,1,5,34
0.000159574,1,5,35
-1.11901e-05,1,5,36
-3.98192e-05,1,5,37
0.000106628,1,5,38
2.95395e-05,1,5,39
0.000145453,1,5,40
-0.000168276,1,5,41
-0.000103097,1,5,42
-5.23583e-05,1,5,43
4.49643e-06,1,5,44
2.28104e-06,1,5,45
6.18856e-05,1,5,46
-3.49616e-05,1,5,47
-0.000110267,1,5,48
8.1986e-05,1,5,49
-8.72049e-05,1,5,50
0.000166318,1,5,51
-0.000134454,1,5,52
4.82148e-05,1,5,53
-8.84815e-06,1,5,54
-3.29851e-06,1,5,55
7.42723e-05,1,5,56
-5.85738e-05,1,5,57
3.0937e-05,1,5,58
5.62519e-07,1,5,59
-9.50582e-05,1,5,60
6.60259e-05,1,5,61
-2.82365e-05,1,5,62
-8.41321e-05,1,5,63
-6.04369e-05,1,5,64
5.38502e-05,1,5,65
0.00025675,1,5,66
-0.000159861,1,5,67
2.5096e-05,1,5,68
3.67749e-05,1,5,69
-2.1539e-05,1,5,70
7.59184e-05,1,5,71
-7.97821e-05,1,5,72
0.000149188,1,5,73
-0.000147422,1,5,74
7.61393e-05,1,5,75
-3.72757e-05,1,5,76
2.41607e-05,1,5,77
-6.29651e-05,1,5,78
-3.29041e-05,1,5,79
1.48164e-05,1,5,80
-4.53115e-05,1,5,81
-8.09513e-05,1,5,82
-7.09494e-05,1,5,83
0.000223434,1,5,84
-8.89177e-05,1,5,85
-7.10958e-05,1,5,86
5.09382e-05,1,5,87
-0.000254145,1,5,88
2.66447e-05,1,5,89
0.000193971,1,5,90
1.42027e-08,1,5,91
6.41409e-05,1,5,92
-9.98836e-05,1,5,93
3.32803e-05,1,5,94
4.92505e-05,1,5,95
4.34156e-05,1,5,96
-0.000144352,1,5,97
7.04245e-05,1,5,98
-1.69675e-06,1,5,99
-0.000104599,1,5,100
-6.99657e-05,1,5,101
-2.57371e-06,1,5,102
3.46662e-06,1,5,103
0.000126864,1,5,104
-8.41728e-05,1,5,105
0.000112349,1,5,106
-7.54255e-06,1,5,107
7.81135e-06,1,5,108
-0.000189092,1,5,109
2.34591e-05,1,5,110
-8.62707e-06,1,5,111
-0.000121178,1,5,112
-2.05012e-05,1,5,113
-6.07828e-06,1,5,114
5.29638e-05,1,5,115
-0.000192091,1,5,116
-9.772e-05,1,5,117
-8.93022e-07,1,5,118
-9.43698e-06,1,5,119
-0.000140862,1,5,120
1.4196e-05,1,5,121
0.000150768,1,5,122
-2.41946e-05,1,5,123
-5.04705e-05,1,5,124
-0.000102181,1,5,125
-7.32184e-05,1,5,126
4.00083e-05,1,5,127
-8.40148e-05,1,5,128
-2.61981e-06,1,5,129
7.21652e-05,1,5,130
-5.01587e-06,1,5,131
-0.000208036,1,5,132
-5.41105e-05,1,5,133
5.78301e-05,1,5,134
3.0126e-06,1,5,135
-0.000111918,1,5,136
6.54021e-06,1,5,137
-5.46845e-05,1,5,138
-5.08736e-05,1,5,139
-0.000133588,1,5,140
3.31152e-05,1,5,141
-4.74136e-06,1,5,142
-5.78375e-05,1,5,143
1.08754e-05,1,5,144
-4.19094e-05,1,5,145
-7.33044e-05,1,5,146
-5.93821e-05,1,5,147
-6.37653e-05,1,5,148
-7.91918e-05,1,5,149
0.000179463,1,5,150
1.76672e-05,1,5,151
2.4175e-05,1,5,152
4.90119e-05,1,5,153
9.09178e-05,1,5,154
1.51545e-05,1,5,155
2.98349e-05,1,5,156
0.00012313,1,5,157
-3.1881e-05,1,5,158
-5.28044e-05,1,5,159
4.12741e-05,1,5,160
-3.41272e-05,1,5,161
3.48021e-05,1,5,162
5.96382e-05,1,5,163
4.79473e-05,1,5,164
4.51229e-05,1,5,165
-8.75881e-05,1,5,166
-0.000116376,1,5,167
0.000112258,1,5,168
0.000105033,1,5,169
5.79006e-05,1,5,170
-5.89759e-05,1,5,171
-0.000101084,1,5,172
-4.49349e-05,1,5,173
1.35773e-05,1,5,174
-8.03011e-05,1,5,175
-7.24148e-05,1,5,176
-5.80536e-05,1,5,177
-8.03941e-06,1,5,178
8.58204e-05,1,5,179
4.42254e-05,1,5,180
1.96768e-05,1,5,181
6.93058e-05,1,5,182
-1.14446e-05,1,5,183
4.66331e-05,1,5,184
0.000114618,1,5,185
6.39141e-05,1,5,186
2.45429e-05,1,5,187
1.20532e-05,1,5,188
-3.64089e-05,1,5,189
0.000183935,1,5,190
-4.00508e-05,1,5,191
-9.58394e-05,1,5,192
-7.9737e-05,1,5,193
-6.42388e-05,1,5,194
0.000156117,1,5,195
-6.36356e-05,1,5,196
-2.02823e-05,1,5,197
4.17314e-06,1,5,198
-4.45129e-05,1,5,199
7.4637e-05,1,5,200
4.88352e-05,1,5,201
-3.63681e-05,1,5,202
-0.000136864,1,5,203
2.26919e-05,1,5,204
8.50555e-05,1,5,205
-0.000120947,1,5,206
5.87199e-05,1,5,207
8.04801e-05,1,5,208
0.000141268,1,5,209
-9.61537e-05,1,5,210
-4.66132e-05,1,5,211
9.01532e-06,1,5,212
9.69355e-06,1,5,213
-7.78128e-05,1,5,214
-0.000100693,1,5,215
-1.29172e-05,1,5,216
-5.87935e-05,1,5,217
0.000103821,1,5,218
-6.09958e-05,1,5,219
8.94495e-05,1,5,220
9.45114e-05,1,5,221
-0.000128505,1,5,222
-4.9494e-05,1,5,223
-4.3689e-05,1,5,224
-7.08312e-05,1,5,225
-0.000152903,1,5,226
8.99581e-05,1,5,227
3.93861e-05,1,5,228
-3.43999e-05,1,5,229
8.36037e-05,1,5,230
-8.6269e-05,1,5,231
1.90384e-05,1,5,232
0.000105029,1,5,233
6.92387e-05,1,5,234
-0.00015256,1,5,235
-1.11229e-05,1,5,236
1.29406e-05,1,5,237
-3.5984e-05,1,5,238
-0.000109607,1,5,239
-9.22428e-06,1,5,240
4.99606e-05,1,5,241
-0.000108295,1,5,242
-2.2226e-05,1,5,243
0.000162948,1,5,244
-3.69205e-05,1,5,245
-8.13974e-05,1,5,246
7.08315e-05,1,5,247
7.32475e-05,1,5,248
-0.000151626,1,5,249
1.86784e-05,1,5,250
-8.27655e-05,1,5,251
0.000149285,1,5,252
0.00020864,1,5,253
-8.35499e-05,1,5,254
0.000200181,1,5,255
-0.000120059,1,5,256
-1.88105e-05,1,6,1
6.65952e-05,1,6,2
2.44032e-05,1,6,3
3.58018e-05,1,6,4
-2.18053e-05,1,6,5
2.20283e-05,1,6,6
9.15909e-06,1,6,7
-1.01891e-05,1,6,8
7.73016e-05,1,6,9
0.000114986,1,6,10
0.000149646,1,6,11
-0.00023387,1,6,12
-7.64143e-05,1,6,13
-7.88826e-05,1,6,14
-9.34928e-05,1,6,15
-2.89037e-05,1,6,16
-6.385e-05,1,6,17
-1.02563e-05,1,6,18
6.8024e-05,1,6,19
8.09906e-05,1,6,20
-9.7729e-05,1,6,21
-4.77617e-05,1,6,22
2.207e-05,1,6,23
-9.07236e-06,1,6,24
-7.34441e-05,1,6,25
-2.4792e-05,1,6,26
-5.54192e-05,1,6,27
-0.000158401,1,6,28
-0.000131674,1,6,29
-0.000131402,1,6,30
0.000161567,1,6,31
-3.50352e-06,1,6,32
0.000106311,1,6,33
6.27385e-05,1,6,34
8.72301e-05,1,6,35
2.11264e-05,1,6,36
-3.42299e-05,1,6,37
6.97579e-05,1,6,38
-0.000100716,1,6,39
-5.44626e-05,1,6,40
3.59348e-05,1,6,41
0.000133588,1,6,42
-0.000108584,1,6,43
-3.32656e-05,1,6,44
3.54217e-05,1,6,45
1.38134e-05,1,6,46
0.000106503,1,6,47
3.69293e-05,1,6,48
-6.15641e-05,1,6,49
1.43051e-06,1,6,50
3.04088e-06,1,6,51
-1.18784e-05,1,6,52
4.29847e-05,1,6,53
-0.000108531,1,6,54
5.9281e-05,1,6,55
-7.51624e-06,1,6,56
-9.04314e-05,1,6,57
0.000141919,1,6,58
-2.30517e-05,1,6,59
6.78876e-06,1,6,60
3.79236e-05,1,6,61
-0.000152062,1,6,62
4.06211e-05,1,6,63
5.02762e-05,1,6,64
0.000112594,1,6,65
0.000128137,1,6,66
-0.000125756,1,6,67
1.0531e-05,1,6,68
-5.09266e-05,1,6,69
2.98409e-05,1,6,70
2.57905e-05,1,6,71
-8.11836e-05,1,6,72
0.0001153,1,6,73
6.59631e-05,1,6,74
6.76947e-05,1,6,75
-0.000130828,1,6,76
-0.00011262,1,6,77
0.000101887,1,6,78
1.27067e-06,1,6,79
4.53305e-05,1,6,80
-8.13745e-05,1,6,81
-5.44186e-05,1,6,82
1.97913e-05,1,6,83
0.000133827,1,6,84
-0.000102773,1,6,85
2.49995e-05,1,6,86
2.97732e-05,1,6,87
-0.000129572,1,6,88
0.000129192,1,6,89
0.000223765,1,6,90
-9.91623e-05,1,6,91
3.28551e-05,1,6,92
-1.16028e-05,1,6,93
-8.31767e-05,1,6,94
-9.07927e-05,1,6,95
0.000253356,1,6,96
5.35448e-05,1,6,97
8.99072e-05,1,6,98
-1.28825e-05,1,6,99
1.56282e-05,1,6,100
-1.35129e-05,1,6,101
-6.94775e-05,1,6,102
0.000116717,1,6,103
6.96629e-07,1,6,104
-0.000128637,1,6,105
9.77188e-05,1,6,106
-3.59087e-05,1,6,107
7.80518e-06,1,6,108
-3.26312e-05,1,6,109
2.09035e-06,1,6,110
-0.000176927,1,6,111
3.63817e-05,1,6,112
8.55343e-05,1,6,113
3.70911e-06,1,6,114
-5.72654e-05,1,6,115
-6.51206e-05,1,6,116
3.48391e-05,1,6,117
7.93124e-05,1,6,118
-2.30516e-05,1,6,119
-9.24056e-05,1,6,120
0.000148317,1,6,121
2.08891e-05,1,6,122
-0.000112436,1,6,123
-1.74926e-06,1,6,124
2.79106e-05,1,6,125
0.000137689,1,6,126
2.49796e-05,1,6,127
9.28799e-05,1,6,128
-7.91815e-05,1,6,129
-3.03597e-05,1,6,130
-2.9176e-05,1,6,131
-9.09553e-05,1,6,132
2.60477e-05,1,6,133
5.78002e-05,1,6,134
-3.75831e-05,1,6,135
-1.97815e-05,1,6,136
0.000156924,1,6,137
1.18946e-05,1,6,138
-4.09653e-05,1,6,139
-4.77955e-06,1,6,140
6.18371e-05,1,6,141
3.51773e-05,1,6,142
-7.29747e-05,1,6,143
2.94535e-05,1,6,144
-4.75405e-05,1,6,145
-0.000199165,1,6,146
-5.49513e-05,1,6,147
0.00011342,1,6,148
1.65848e-05,1,6,149
0.000119958,1,6,150
-4.95458e-05,1,6,151
-5.48703e-05,1,6,152
-4.40067e-05,1,6,153
-0.00013232,1,6,154
-1.10678e-05,1,6,155
-3.26022e-05,1,6,156
2.95193e-05,1,6,157
-6.70101e-05,1,6,158
-5.68007e-05,1,6,159
4.4258e-05,1,6,160
0.000101565,1,6,161
-3.75581e-05,1,6,162
6.88515e-05,1,6,163
2.77115e-05,1,6,164
-1.84726e-05,1,6,165
6.67945e-06,1,6,166
2.38256e-05,1,6,167
-5.53911e-05,1,6,168
-4.54463e-05,1,6,169
-0.000216462,1,6,170
-2.11403e-05,1,6,171
-1.80898e-06,1,6,172
-2.24012e-05,1,6,173
-1.20918e-05,1,6,174
0.000100169,1,6,175
-2.95332e-05,1,6,176
-7.85097e-05,1,6,177
-5.64097e-05,1,6,178
3.54518e-05,1,6,179
-0.000122102,1,6,180
2.53565e-05,1,6,181
-5.15478e-05,1,6,182
-4.73846e-05,1,6,183
-0.000177943,1,6,184
9.91321e-05,1,6,185
-2.02773e-05,1,6,186
-9.05285e-05,1,6,187
-0.000160802,1,6,188
3.15858e-05,1,6,189
2.0863e-05,1,6,190
0.000123533,1,6,191
2.61999e-05,1,6,192
0.00012931,1,6,193
0.000128507,1,6,194
-0.000103171,1,6,195
0.000114865,1,6,196
-0.000114433,1,6,197
-0.000105036,1,6,198
8.21949e-05,1,6,199
2.43436e-06,1,6,200
-7.25683e-05,1,6,201
7.05032e-05,1,6,202
-7.86391e-05,1,6,203
6.73992e-05,1,6,204
-0.00012797,1,6,205
-0.000100283,1,6,206
-0.000118212,1,6,207
-7.90136e-05,1,6,208
0.000137716,1,6,209
0.000141568,1,6,210
9.92964e-06,1,6,211
7.19061e-05,1,6,212