# vtk DataFile Version 1.0
Net Charge Density
ASCII
DATASET STRUCTURED_POINTS
DIMENSIONS 256 128 1
ORIGIN 0 0 0
SPACING 0.15625 0.15625 1
POINT_DATA 32768
SCALARS rhonet float
LOOKUP_TABLE default
-8.89964e-05,1,1,1
-0.000164431,1,1,2
6.73247e-05,1,1,3
0.000180924,1,1,4
3.86301e-06,1,1,5
0.000191473,1,1,6
3.31744e-05,1,1,7
-3.29298e-05,1,1,8
0.000211425,1,1,9
0.00020405,1,1,10
2.30237e-05,1,1,11
0.000279595,1,1,12
0.000127751,1,1,13
-0.000183836,1,1,14
-0.000216213,1,1,15
0.000243326,1,1,16
0.000142679,1,1,17
-9.87002e-05,1,1,18
-2.87005e-05,1,1,19
2.38953e-05,1,1,20
4.87664e-06,1,1,21
0.000126141,1,1,22
-8.77731e-05,1,1,23
5.3558e-05,1,1,24
9.73925e-05,1,1,25
2.47741e-05,1,1,26
7.28206e-05,1,1,27
7.3313e-05,1,1,28
0.000266093,1,1,29
4.45559e-05,1,1,30
-0.000187995,1,1,31
-0.000141228,1,1,32
0.00013852,1,1,33
0.00019782,1,1,34
4.2005e-05,1,1,35
0.000104592,1,1,36
0.000146124,1,1,37
-7.05902e-05,1,1,38
3.89592e-05,1,1,39
2.23196e-05,1,1,40
0.000178941,1,1,41
0.00013508,1,1,42
8.85106e-05,1,1,43
0.000102749,1,1,44
0.000125256,1,1,45
6.33753e-06,1,1,46
2.51115e-05,1,1,47
8.20986e-05,1,1,48
5.3151e-05,1,1,49
0.000119896,1,1,50
0.000161602,1,1,51
-1.1104e-05,1,1,52
0.00015061,1,1,53
0.00017972,1,1,54
-9.1678e-05,1,1,55
-3.29583e-05,1,1,56
-3.99988e-05,1,1,57
0.000187685,1,1,58
0.000135206,1,1,59
0.000108327,1,1,60
-0.000173156,1,1,61
0.000276285,1,1,62
0.000165613,1,1,63
-3.8438e-05,1,1,64
-0.000121112,1,1,65
5.01913e-05,1,1,66
-8.66074e-05,1,1,67
0.000157549,1,1,68
1.5198e-05,1,1,69
-7.60974e-05,1,1,70
-6.64492e-05,1,1,71
-0.000151567,1,1,72
-3.41679e-05,1,1,73
0.000301608,1,1,74
7.66139e-05,1,1,75
-4.76975e-05,1,1,76
6.83875e-05,1,1,77
0.000145776,1,1,78
6.34149e-05,1,1,79
1.53664e-05,1,1,80
-0.000111346,1,1,81
-6.43475e-05,1,1,82
0.000307743,1,1,83
0.000107896,1,1,84
0.000156533,1,1,85
0.000151515,1,1,86
0.00018837,1,1,87
-0.000153581,1,1,88
0.000203115,1,1,89
0.00031454,1,1,90
8.47193e-05,1,1,91
-5.67472e-05,1,1,92
3.65102e-06,1,1,93
4.21898e-05,1,1,94
-1.17712e-05,1,1,95
0.000185573,1,1,96
-6.01257e-05,1,1,97
9.2515e-05,1,1,98
-0.000105055,1,1,99
0.000513903,1,1,100
0.00018112,1,1,101
-4.06464e-05,1,1,102
0.000103039,1,1,103
-1.57754e-05,1,1,104
1.81862e-05,1,1,105
0.000185247,1,1,106
1.56636e-05,1,1,107
-3.30391e-05,1,1,108
3.9584e-05,1,1,109
-5.65074e-05,1,1,110
9.67322e-05,1,1,111
0.000135004,1,1,112
-7.10149e-05,1,1,113
-0.000116246,1,1,114
-0.000293087,1,1,115
-1.20507e-05,1,1,116
0.000196575,1,1,117
0.000161801,1,1,118
1.39737e-05,1,1,119
-0.000188641,1,1,120
5.74631e-05,1,1,121
1.23907e-05,1,1,122
6.46163e-05,1,1,123
4.7017e-05,1,1,124
1.39865e-05,1,1,125
-2.69531e-05,1,1,126
8.53458e-05,1,1,127
2.44342e-05,1,1,128
0.00018368,1,1,129
2.4826e-05,1,1,130
3.65496e-05,1,1,131
0.000122553,1,1,132
9.48426e-05,1,1,133
-3.01064e-05,1,1,134
9.04195e-05,1,1,135
5.78713e-05,1,1,136
0.00027915,1,1,137
0.000120272,1,1,138
0.000106484,1,1,139
-0.000217122,1,1,140
-4.58071e-06,1,1,141
6.54794e-05,1,1,142
-4.92635e-06,1,1,143
4.93007e-05,1,1,144
-3.99719e-05,1,1,145
0.00010235,1,1,146
0.00016881,1,1,147
-3.91197e-05,1,1,148
3.76489e-05,1,1,149
0.000252592,1,1,150
-8.82366e-05,1,1,151
-4.82018e-05,1,1,152
0.000177523,1,1,153
0.000274355,1,1,154
0.000128818,1,1,155
6.23012e-05,1,1,156
0.000135928,1,1,157
8.18411e-06,1,1,158
4.77404e-05,1,1,159
6.06261e-05,1,1,160
0.000130789,1,1,161
0.000107803,1,1,162
-8.37164e-05,1,1,163
9.65773e-05,1,1,164
-5.18437e-05,1,1,165
-0.000102245,1,1,166
0.000160798,1,1,167
0.000218389,1,1,168
0.000229294,1,1,169
4.46856e-05,1,1,170
-5.02181e-05,1,1,171
-2.03366e-06,1,1,172
-6.93218e-06,1,1,173
-3.22645e-05,1,1,174
9.88857e-05,1,1,175
0.000118852,1,1,176
0.000188594,1,1,177
-3.82812e-05,1,1,178
-0.000114186,1,1,179
9.30814e-05,1,1,180
0.000170248,1,1,181
0.000170585,1,1,182
-5.99469e-05,1,1,183
-0.000114894,1,1,184
3.01121e-05,1,1,185
0.000124835,1,1,186
0.000147015,1,1,187
0.000125632,1,1,188
0.000105981,1,1,189
0.000260402,1,1,190
0.000187682,1,1,191
0.000105557,1,1,192
7.29121e-05,1,1,193
-8.07224e-05,1,1,194
-0.000155445,1,1,195
0.00030499,1,1,196
0.000208996,1,1,197
3.3515e-05,1,1,198
0.000190699,1,1,199
6.13392e-06,1,1,200
7.67165e-06,1,1,201
1.51945e-05,1,1,202
0.000192278,1,1,203
8.82992e-05,1,1,204
-0.000104467,1,1,205
0.00014671,1,1,206
-5.74149e-05,1,1,207
-8.37934e-06,1,1,208
-8.24683e-05,1,1,209
0.000302362,1,1,210
-2.56734e-05,1,1,211
-0.00012002,1,1,212
0.00013921,1,1,213
0.000212545,1,1,214
-6.37444e-06,1,1,215
-5.47463e-05,1,1,216
3.51254e-05,1,1,217
5.77911e-05,1,1,218
4.46553e-05,1,1,219
0.000108326,1,1,220
-9.93186e-05,1,1,221
-0.000142599,1,1,222
0.000304249,1,1,223
8.57085e-05,1,1,224
-0.000139695,1,1,225
0.000208727,1,1,226
-8.71236e-05,1,1,227
6.99726e-05,1,1,228
-0.000209231,1,1,229
3.65512e-05,1,1,230
0.000211047,1,1,231
-0.000121397,1,1,232
-8.78271e-05,1,1,233
0.000243595,1,1,234
0.000104742,1,1,235
7.16868e-05,1,1,236
0.000175833,1,1,237
-8.4169e-05,1,1,238
0.000117093,1,1,239
0.000292926,1,1,240
3.00537e-05,1,1,241
-0.000198833,1,1,242
0.000113081,1,1,243
8.61074e-05,1,1,244
0.000117134,1,1,245
0.000126007,1,1,246
4.07929e-05,1,1,247
2.43268e-05,1,1,248
0.000117619,1,1,249
-7.49796e-06,1,1,250
6.64268e-05,1,1,251
-0.0001827,1,1,252
-1.10203e-05,1,1,253
-0.000116789,1,1,254
-5.03096e-05,1,1,255
0.000113211,1,1,256
9.38515e-05,1,2,1
7.11076e-06,1,2,2
-1.07242e-06,1,2,3
-0.000114282,1,2,4
1.30754e-05,1,2,5
-9.59644e-05,1,2,6
-0.00018783,1,2,7
-1.4722e-05,1,2,8
0.000141969,1,2,9
-0.000105542,1,2,10
-2.11766e-05,1,2,11
0.000159347,1,2,12
-6.05984e-05,1,2,13
-0.000104908,1,2,14
-0.000191295,1,2,15
-3.15241e-05,1,2,16
2.67866e-05,1,2,17
-8.83366e-05,1,2,18
2.81922e-05,1,2,19
6.03008e-05,1,2,20
-2.11118e-05,1,2,21
-0.000153984,1,2,22
-6.70948e-06,1,2,23
-0.000122243,1,2,24
-5.28992e-05,1,2,25
-0.000213783,1,2,26
8.63423e-05,1,2,27
2.43838e-05,1,2,28
1.32923e-06,1,2,29
-1.46833e-05,1,2,30
-4.76748e-05,1,2,31
0.000114568,1,2,32
-3.24089e-05,1,2,33
-5.61238e-06,1,2,34
-1.98613e-05,1,2,35
-3.69214e-05,1,2,36
-3.48256e-06,1,2,37
-0.000116264,1,2,38
-5.25549e-05,1,2,39
-1.27149e-06,1,2,40
-2.64915e-05,1,2,41
-0.000104853,1,2,42
-3.60254e-05,1,2,43
8.13332e-05,1,2,44
-0.000105781,1,2,45
-0.000144953,1,2,46
7.52907e-05,1,2,47
4.11215e-05,1,2,48
-2.63746e-05,1,2,49
3.98702e-05,1,2,50
-9.31576e-05,1,2,51
4.86262e-05,1,2,52
8.56584e-07,1,2,53
4.31912e-06,1,2,54
-0.000119127,1,2,55
-7.30146e-05,1,2,56
6.05753e-05,1,2,57
2.74989e-05,1,2,58
-0.000101008,1,2,59
6.03885e-05,1,2,60
-2.35748e-05,1,2,61
-0.000135273,1,2,62
-4.44637e-06,1,2,63
1.76305e-05,1,2,64
-0.000143068,1,2,65
5.91766e-05,1,2,66
-6.20307e-06,1,2,67
4.06074e-05,1,2,68
8.06636e-05,1,2,69
-7.99191e-05,1,2,70
3.64548e-05,1,2,71
-5.82092e-05,1,2,72
-9.32359e-06,1,2,73
5.90807e-05,1,2,74
4.19955e-05,1,2,75
3.69134e-05,1,2,76
-4.19619e-05,1,2,77
-5.43674e-05,1,2,78
3.4102e-05,1,2,79
-4.67332e-05,1,2,80
-0.0001537,1,2,81
-6.71793e-05,1,2,82
6.00313e-05,1,2,83
-4.68122e-05,1,2,84
-3.43906e-05,1,2,85
-8.82396e-05,1,2,86
4.55752e-05,1,2,87
-0.000176053,1,2,88
1.1282e-05,1,2,89
-0.00015407,1,2,90
-0.000127912,1,2,91
-9.47625e-05,1,2,92
-6.21467e-05,1,2,93
-4.80895e-05,1,2,94
5.24877e-05,1,2,95
-3.36813e-06,1,2,96
-0.000122984,1,2,97
4.3098e-05,1,2,98
-0.000154294,1,2,99
6.53999e-05,1,2,100
-0.00010901,1,2,101
-7.15227e-05,1,2,102
-5.46535e-05,1,2,103
0.000123682,1,2,104
-2.6908e-05,1,2,105
3.08175e-05,1,2,106
-0.000163153,1,2,107
0.000118408,1,2,108
-4.62127e-05,1,2,109
-0.000235137,1,2,110
-5.79355e-05,1,2,111
-7.17838e-05,1,2,112
-0.000163479,1,2,113
5.96766e-05,1,2,114
1.61466e-05,1,2,115
-7.24099e-05,1,2,116
2.98857e-05,1,2,117
-4.80517e-05,1,2,118
-4.58631e-05,1,2,119
-7.19617e-05,1,2,120
-3.38639e-05,1,2,121
-0.000109086,1,2,122
7.39486e-05,1,2,123
9.90361e-05,1,2,124
3.75019e-05,1,2,125
8.90733e-05,1,2,126
1.56957e-05,1,2,127
-6.02787e-05,1,2,128
2.84292e-05,1,2,129
-7.58183e-05,1,2,130
-6.37146e-05,1,2,131
0.000168836,1,2,132
-6.88587e-05,1,2,133
-0.000162257,1,2,134
2.27818e-05,1,2,135
1.59419e-06,1,2,136
-7.45541e-05,1,2,137
-0.000121428,1,2,138
-1.77685e-06,1,2,139
-0.000190662,1,2,140
0.00010786,1,2,141
0.000110056,1,2,142
-2.80036e-05,1,2,143
-1.88081e-05,1,2,144
-0.000179983,1,2,145
-8.35257e-05,1,2,146
9.67795e-05,1,2,147
8.11392e-06,1,2,148
6.5163e-05,1,2,149
0.000115118,1,2,150
-8.75529e-05,1,2,151
-5.66705e-05,1,2,152
4.48846e-05,1,2,153
-0.000137128,1,2,154
-9.15061e-05,1,2,155
-0.000117078,1,2,156
7.77815e-05,1,2,157
-6.16326e-05,1,2,158
-7.80416e-05,1,2,159
-4.38608e-05,1,2,160
6.10383e-05,1,2,161
-0.000105036,1,2,162
5.4233e-05,1,2,163
3.28157e-05,1,2,164
8.62766e-05,1,2,165
-5.37984e-05,1,2,166
-4.06349e-05,1,2,167
1.56842e-05,1,2,168
-4.02809e-05,1,2,169
-0.000211141,1,2,170
2.38117e-05,1,2,171
0.000203274,1,2,172
-1.50737e-05,1,2,173
4.13631e-05,1,2,174
-8.67893e-05,1,2,175
-6.52749e-05,1,2,176
3.89044e-05,1,2,177
-0.000102638,1,2,178
1.51225e-05,1,2,179
-4.97352e-05,1,2,180
-2.7699e-05,1,2,181
2.26526e-05,1,2,182
-3.52244e-05,1,2,183
-0.000176033,1,2,184
-0.000125343,1,2,185
-3.13104e-05,1,2,186
-3.65428e-07,1,2,187
-0.000170566,1,2,188
-4.75533e-05,1,2,189
-5.78193e-05,1,2,190
-0.000183783,1,2,191
-2.11979e-05,1,2,192
5.88741e-05,1,2,193
5.74102e-06,1,2,194
-3.58102e-05,1,2,195
-5.21971e-06,1,2,196
-8.06733e-05,1,2,197
-0.000193738,1,2,198
-0.000104422,1,2,199
-3.91724e-05,1,2,200
4.23501e-05,1,2,201
-9.05199e-05,1,2,202
-7.62017e-05,1,2,203
-8.52777e-06,1,2,204
0.000146161,1,2,205
-0.000152342,1,2,206
-5.96845e-05,1,2,207
9.52e-05,1,2,208
-0.000116926,1,2,209
9.23374e-05,1,2,210
-9.78988e-05,1,2,211
-1.47186e-05,1,2,212
0.000151847,1,2,213
2.37793e-05,1,2,214
-7.93703e-05,1,2,215
-2.8291e-05,1,2,216
-1.92878e-05,1,2,217
-2.44336e-05,1,2,218
-0.000142313,1,2,219
0.000105529,1,2,220
4.18116e-05,1,2,221
1.36645e-05,1,2,222
-1.15986e-05,1,2,223
-2.04687e-05,1,2,224
-2.06288e-07,1,2,225
-1.9763e-05,1,2,226
2.11212e-05,1,2,227
0.000109334,1,2,228
-0.000261438,1,2,229
4.28509e-05,1,2,230
4.00639e-05,1,2,231
-7.66998e-05,1,2,232
-6.17964e-05,1,2,233
-1.02726e-05,1,2,234
-0.000159574,1,2,235
-8.1892e-05,1,2,236
7.35667e-05,1,2,237
-4.22965e-05,1,2,238
9.23174e-06,1,2,239
-1.98807e-05,1,2,240
9.94583e-06,1,2,241
-8.87783e-07,1,2,242
-5.61635e-05,1,2,243
-3.99556e-05,1,2,244
-5.35061e-05,1,2,245
-0.000102719,1,2,246
9.00063e-05,1,2,247
-0.000219845,1,2,248
-0.000120905,1,2,249
-5.9022e-05,1,2,250
4.97608e-05,1,2,251
-3.80764e-05,1,2,252
-1.36701e-05,1,2,253
-2.83006e-06,1,2,254
-8.34794e-05,1,2,255
1.19547e-05,1,2,256
-7.01746e-05,1,3,1
-3.17382e-05,1,3,2
1.34767e-05,1,3,3
5.83421e-05,1,3,4
-0.000137647,1,3,5
-8.99399e-05,1,3,6
0.000151386,1,3,7
1.51157e-05,1,3,8
-6.14102e-06,1,3,9
-0.000129065,1,3,10
3.11777e-05,1,3,11
0.000173843,1,3,12
-0.000137103,1,3,13
4.43447e-05,1,3,14
0.000100966,1,3,15
9.51358e-06,1,3,16
9.34245e-06,1,3,17
4.56322e-05,1,3,18
-4.52996e-05,1,3,19
0.0002318,1,3,20
-1.65908e-05,1,3,21
-9.65687e-05,1,3,22
0.000247102,1,3,23
-6.24573e-05,1,3,24
-9.62124e-05,1,3,25
4.41666e-05,1,3,26
-6.78144e-05,1,3,27
-9.39945e-05,1,3,28
-3.89074e-05,1,3,29
6.94155e-05,1,3,30
5.6017e-05,1,3,31
3.48884e-05,1,3,32
-0.000183193,1,3,33
5.50053e-05,1,3,34
9.5517e-05,1,3,35
2.66583e-05,1,3,36
-3.39595e-05,1,3,37
0.000120549,1,3,38
5.00306e-06,1,3,39
-7.5276e-05,1,3,40
0.000127643,1,3,41
-7.99589e-05,1,3,42
-8.11347e-05,1,3,43
-0.000202427,1,3,44
6.17066e-05,1,3,45
-9.95558e-05,1,3,46
-5.43229e-05,1,3,47
-5.94817e-05,1,3,48
-9.6013e-05,1,3,49
0.000116062,1,3,50
-0.000147444,1,3,51
1.14928e-05,1,3,52
-7.4331e-05,1,3,53
0.000155805,1,3,54
7.66396e-05,1,3,55
-6.99933e-05,1,3,56
7.37108e-05,1,3,57
-2.04374e-05,1,3,58
-8.95964e-05,1,3,59
9.624e-05,1,3,60
-3.38343e-05,1,3,61
-3.49053e-05,1,3,62
4.17582e-05,1,3,63
0.000162894,1,3,64
3.636e-05,1,3,65
8.77911e-05,1,3,66
-3.58355e-05,1,3,67
-2.20584e-05,1,3,68
-3.02226e-06,1,3,69
-1.37129e-05,1,3,70
3.04272e-05,1,3,71
5.12841e-05,1,3,72
-1.66399e-05,1,3,73
-6.64196e-05,1,3,74
-0.000106226,1,3,75
-3.41021e-05,1,3,76
-0.000114615,1,3,77
-1.21311e-05,1,3,78
2.69825e-05,1,3,79
0.000152796,1,3,80
4.25635e-05,1,3,81
-6.62487e-05,1,3,82
1.30313e-05,1,3,83
0.000125127,1,3,84
-3.36288e-05,1,3,85
0.000125025,1,3,86
-3.74268e-05,1,3,87
-0.000105816,1,3,88
-9.70286e-05,1,3,89
0.000180479,1,3,90
2.01128e-05,1,3,91
3.3197e-05,1,3,92
4.16909e-05,1,3,93
0.000125363,1,3,94
-0.000130524,1,3,95
0.000146989,1,3,96
3.85045e-05,1,3,97
-9.22033e-05,1,3,98
-5.52763e-06,1,3,99
-2.88954e-05,1,3,100
-7.75096e-05,1,3,101
-0.00016559,1,3,102
-6.21091e-05,1,3,103
8.7323e-05,1,3,104
0.00013541,1,3,105
-5.54551e-05,1,3,106
8.27907e-05,1,3,107
8.54186e-05,1,3,108
0.000115635,1,3,109
-8.6287e-05,1,3,110
4.5581e-05,1,3,111
0.000119125,1,3,112
0.00018409,1,3,113
2.40584e-06,1,3,114
0.000137161,1,3,115
5.34614e-05,1,3,116
5.22614e-05,1,3,117
5.68458e-05,1,3,118
0.000167474,1,3,119
-5.51221e-05,1,3,120
-1.33794e-05,1,3,121
-4.05214e-05,1,3,122
-0.00012564,1,3,123
6.856e-05,1,3,124
-1.32683e-05,1,3,125
3.22425e-05,1,3,126
-2.875e-05,1,3,127
-4.65668e-05,1,3,128
-8.74826e-05,1,3,129
-7.05924e-05,1,3,130
7.68014e-05,1,3,131
-9.85501e-05,1,3,132
4.49249e-05,1,3,133
-7.86618e-05,1,3,134
9.82087e-05,1,3,135
-0.000145106,1,3,136
-0.000182992,1,3,137
0.000104832,1,3,138
-1.31571e-05,1,3,139
-7.55029e-05,1,3,140
0.000210964,1,3,141
-6.38554e-05,1,3,142
8.74363e-05,1,3,143
0.000118602,1,3,144
-0.000142688,1,3,145
0.000153399,1,3,146
0.000188841,1,3,147
-0.000133898,1,3,148
-3.0449e-05,1,3,149
-8.05344e-05,1,3,150
-1.98924e-05,1,3,151
-2.80347e-05,1,3,152
5.00237e-05,1,3,153
-0.000123372,1,3,154
-0.000185927,1,3,155
2.17024e-05,1,3,156
2.22621e-05,1,3,157
-4.22014e-05,1,3,158
8.28361e-05,1,3,159
-0.000114716,1,3,160
-1.43955e-05,1,3,161
-3.40615e-05,1,3,162
-0.00010146,1,3,163
3.65768e-05,1,3,164
-5.14566e-05,1,3,165
0.000108135,1,3,166
-1.38626e-05,1,3,167
-8.48663e-05,1,3,168
1.70885e-05,1,3,169
0.000166328,1,3,170
4.82558e-05,1,3,171
-0.000137476,1,3,172
-0.000130724,1,3,173
-9.48529e-06,1,3,174
4.53354e-05,1,3,175
-0.000128979,1,3,176
5.08633e-05,1,3,177
1.61452e-05,1,3,178
-0.000157478,1,3,179
0.000116752,1,3,180
-5.86527e-05,1,3,181
-9.88576e-06,1,3,182
2.70258e-05,1,3,183
5.98142e-05,1,3,184
5.88682e-05,1,3,185
7.4768e-05,1,3,186
-2.03853e-05,1,3,187
6.78024e-05,1,3,188
-9.19695e-05,1,3,189
-5.69073e-06,1,3,190
-0.000144547,1,3,191
0.00017434,1,3,192
-1.03791e-05,1,3,193
-3.04007e-06,1,3,194
3.54419e-05,1,3,195
7.37602e-05,1,3,196
5.43422e-05,1,3,197
-7.24928e-05,1,3,198
-4.39928e-05,1,3,199
-3.61343e-05,1,3,200
2.63092e-05,1,3,201
0.000149055,1,3,202
6.77109e-05,1,3,203
-0.000108175,1,3,204
2.75206e-07,1,3,205
-0.000102251,1,3,206
0.000191155,1,3,207
-4.9267e-07,1,3,208
2.48827e-05,1,3,209
1.41293e-05,1,3,210
-5.52989e-05,1,3,211
-0.000112945,1,3,212
1.64517e-05,1,3,213
5.99897e-05,1,3,214
-0.000104574,1,3,215
-2.0163e-05,1,3,216
-2.06162e-05,1,3,217
-2.06782e-05,1,3,218
2.71754e-05,1,3,219
3.29528e-05,1,3,220
9.95215e-05,1,3,221
-4.56781e-05,1,3,222
-3.40247e-06,1,3,223
3.48248e-05,1,3,224
5.44942e-05,1,3,225
4.12605e-05,1,3,226
0.000162434,1,3,227
-7.54972e-05,1,3,228
-7.04979e-05,1,3,229
-8.70787e-07,1,3,230
0.000148986,1,3,231
8.32416e-05,1,3,232
6.13603e-05,1,3,233
7.60481e-05,1,3,234
-1.61109e-05,1,3,235
-8.15629e-06,1,3,236
0.000102876,1,3,237
4.52762e-05,1,3,238
3.04845e-06,1,3,239
1.02993e-05,1,3,240
9.89579e-05,1,3,241
-6.89173e-05,1,3,242
3.38096e-05,1,3,243
7.08601e-05,1,3,244
-5.00828e-05,1,3,245
-0.000160351,1,3,246
2.85004e-05,1,3,247
-3.94692e-05,1,3,248
0.000187724,1,3,249
0.000159625,1,3,250
2.64982e-05,1,3,251
9.43409e-05,1,3,252
4.62711e-05,1,3,253
5.01331e-06,1,3,254
-5.53357e-06,1,3,255
0.00016653,1,3,256
-0.000108887,1,4,1
6.76438e-05,1,4,2
7.97851e-05,1,4,3
2.64238e-05,1,4,4
-3.33122e-05,1,4,5
-3.69875e-05,1,4,6
0.000154182,1,4,7
-0.000138619,1,4,8
-8.34804e-05,1,4,9
3.13434e-05,1,4,10
1.95613e-06,1,4,11
7.74231e-05,1,4,12
-8.67888e-05,1,4,13
-0.000106185,1,4,14
0.000124943,1,4,15
-3.27162e-06,1,4,16
3.75251e-05,1,4,17
9.61649e-05,1,4,18
-6.26927e-05,1,4,19
0.00019247,1,4,20
1.75089e-07,1,4,21
-0.000103404,1,4,22
-1.4643e-05,1,4,23
-7.02797e-05,1,4,24
0.000126966,1,4,25
-4.42555e-05,1,4,26
-3.1238e-05,1,4,27
-6.08347e-05,1,4,28
0.000185488,1,4,29
6.59481e-06,1,4,30
-2.88459e-05,1,4,31
2.55718e-06,1,4,32
-4.19505e-05,1,4,33
2.88812e-05,1,4,34
-7.87324e-05,1,4,35
-0.000245335,1,4,36
-4.55731e-06,1,4,37
1.41899e-06,1,4,38
-2.96715e-05,1,4,39
-0.000100693,1,4,40
6.97646e-05,1,4,41
9.95679e-05,1,4,42
2.10071e-05,1,4,43
9.20026e-05,1,4,44
0.000134083,1,4,45
6.70773e-06,1,4,46
-3.21711e-05,1,4,47
-1.05818e-05,1,4,48
0.000141856,1,4,49
-7.66043e-05,1,4,50
-3.02676e-05,1,4,51
-9.20403e-05,1,4,52
-5.6492e-05,1,4,53
-6.99648e-05,1,4,54
-1.04215e-06,1,4,55
-3.12682e-05,1,4,56
-1.03472e-05,1,4,57
-1.91762e-05,1,4,58
6.47316e-06,1,4,59
-1.19123e-05,1,4,60
1.18999e-05,1,4,61
-0.00012422,1,4,62
-0.000133447,1,4,63
2.95367e-05,1,4,64
2.01783e-05,1,4,65
7.01151e-05,1,4,66
-6.80154e-05,1,4,67
0.000112858,1,4,68
-5.64296e-05,1,4,69
-0.000102792,1,4,70
3.18147e-05,1,4,71
9.65787e-05,1,4,72
0.000142974,1,4,73
-0.00021521,1,4,74
-2.51561e-05,1,4,75
0.000155176,1,4,76
-7.0878e-05,1,4,77
-1.83471e-06,1,4,78
-9.00576e-05,1,4,79
-6.12383e-05,1,4,80
3.06271e-05,1,4,81
-2.73809e-05,1,4,82
0.000121417,1,4,83
-7.09144e-06,1,4,84
-0.000136559,1,4,85
5.4209e-05,1,4,86
-8.18295e-06,1,4,87
-8.82482e-05,1,4,88
-4.20737e-06,1,4,89
6.04574e-05,1,4,90
1.07288e-06,1,4,91
-0.000111192,1,4,92
-8.29693e-05,1,4,93
-0.000135972,1,4,94
-2.61226e-05,1,4,95
7.2001e-05,1,4,96
-0.000131597,1,4,97
2.96028e-05,1,4,98
2.28288e-05,1,4,99
-6.37443e-05,1,4,100
0.00025458,1,4,101
-1.29704e-05,1,4,102
-0.000103429,1,4,103
-5.66976e-05,1,4,104
-0.000126446,1,4,105
-7.45128e-06,1,4,106
9.49726e-05,1,4,107
-0.000134314,1,4,108
2.41229e-05,1,4,109
-7.84071e-05,1,4,110
9.75836e-05,1,4,111
3.62003e-05,1,4,112
9.45164e-05,1,4,113
2.15507e-05,1,4,114
-2.0613e-05,1,4,115
-3.88104e-05,1,4,116
-0.000148646,1,4,117
0.000226775,1,4,118
9.63688e-05,1,4,119
-7.63233e-05,1,4,120
2.8778e-05,1,4,121
8.77602e-05,1,4,122
-8.39324e-05,1,4,123
-2.85241e-05,1,4,124
0.00010019,1,4,125
-0.000145643,1,4,126
7.67787e-05,1,4,127
4.41065e-05,1,4,128
6.33273e-05,1,4,129
3.54644e-05,1,4,130
-4.7019e-05,1,4,131
6.01048e-05,1,4,132
0.000238689,1,4,133
-1.1372e-05,1,4,134
1.32811e-05,1,4,135
4.61284e-05,1,4,136
9.35653e-05,1,4,137
0.000111443,1,4,138
6.89395e-05,1,4,139
4.29255e-05,1,4,140
5.71756e-05,1,4,141
-0.000123357,1,4,142
-2.57517e-05,1,4,143
2.09778e-05,1,4,144
-7.54534e-05,1,4,145
-5.30499e-05,1,4,146
3.71691e-06,1,4,147
-4.13263e-05,1,4,148
0.000107549,1,4,149
-7.41163e-05,1,4,150
-8.38637e-05,1,4,151
3.15659e-05,1,4,152
-0.000155529,1,4,153
-4.05917e-06,1,4,154
8.19248e-05,1,4,155
7.88571e-05,1,4,156
8.92126e-06,1,4,157
-0.000158251,1,4,158
0.000104388,1,4,159
6.37079e-05,1,4,160
-9.68605e-05,1,4,161
8.47003e-06,1,4,162
-2.2642e-05,1,4,163
2.02247e-05,1,4,164
-5.80794e-05,1,4,165
-4.53771e-05,1,4,166
-0.000111838,1,4,167
-1.58465e-05,1,4,168
4.6669e-05,1,4,169
8.89623e-06,1,4,170
1.84821e-05,1,4,171
0.000207152,1,4,172
1.02581e-05,1,4,173
3.13816e-05,1,4,174
0.000133191,1,4,175
4.81962e-05,1,4,176
4.80296e-05,1,4,177
4.55595e-05,1,4,178
2.47981e-05,1,4,179
0.000182448,1,4,180
-2.09906e-05,1,4,181
-5.10677e-05,1,4,182
-0.000165661,1,4,183
-1.12366e-05,1,4,184
1.81834e-05,1,4,185
-8.31874e-05,1,4,186
-4.87242e-05,1,4,187
-7.17351e-06,1,4,188
6.01681e-06,1,4,189
-7.74846e-05,1,4,190
6.14964e-05,1,4,191
8.30097e-05,1,4,192
5.09629e-05,1,4,193
-9.22172e-06,1,4,194
-1.73696e-05,1,4,195
4.86046e-06,1,4,196
0.000144273,1,4,197
-9.19845e-05,1,4,198
-0.000114029,1,4,199
-6.52779e-05,1,4,200
-1.09936e-05,1,4,201
8.5671e-05,1,4,202
-5.85103e-07,1,4,203
-1.54502e-05,1,4,204
0.000174422,1,4,205
0.000100693,1,4,206
-6.32087e-05,1,4,207
-0.0001399,1,4,208
1.76425e-05,1,4,209
-7.06061e-05,1,4,210
3.54815e-05,1,4,211
-0.000141505,1,4,212
8.52002e-05,1,4,213
7.95143e-05,1,4,214
-0.000127984,1,4,215
1.78961e-05,1,4,216
4.6322e-05,1,4,217
0.000139067,1,4,218
-4.06984e-05,1,4,219
-0.000219237,1,4,220
1.18928e-05,1,4,221
6.91261e-05,1,4,222
0.000103412,1,4,223
3.01393e-05,1,4,224
1.81206e-05,1,4,225
-8.48224e-05,1,4,226
-2.77943e-05,1,4,227
-3.61354e-05,1,4,228
-4.22503e-05,1,4,229
2.46967e-05,1,4,230
-0.000103875,1,4,231
-0.000121247,1,4,232
-1.83885e-05,1,4,233
-5.68029e-05,1,4,234
-0.000118191,1,4,235
-0.000102747,1,4,236
9.25116e-05,1,4,237
2.27755e-05,1,4,238
1.13469e-05,1,4,239
-0.000100635,1,4,240
-2.48385e-05,1,4,241
-9.26373e-05,1,4,242
3.89392e-05,1,4,243
5.67283e-05,1,4,244
-3.55969e-05,1,4,245
7.58739e-05,1,4,246
0.000112991,1,4,247
2.82426e-05,1,4,248
-6.06352e-05,1,4,249
1.33616e-05,1,4,250
-4.06097e-05,1,4,251
-1.77711e-05,1,4,252
8.73172e-05,1,4,253
-0.000233145,1,4,254
-0.000133022,1,4,255
0.000155851,1,4,256
-4.31323e-05,1,5,1
-1.50562e-05,1,5,2
-9.80077e-06,1,5,3
-1.25055e-05,1,5,4
3.9553e-05,1,5,5
-6.42721e-05,1,5,6
3.49223e-06,1,5,7
-0.000116738,1,5,8
-9.34431e-06,1,5,9
2.47869e-05,1,5,10
7.48531e-05,1,5,11
-0.000201998,1,5,12
-7.66104e-05,1,5,13
5.21204e-05,1,5,14
6.21411e-05,1,5,15
-2.86263e-05,1,5,16
-7.18143e-05,1,5,17
-8.01752e-05,1,5,18
-4.28616e-05,1,5,19
9.60915e-06,1,5,20
-5.67321e-05,1,5,21
-7.19777e-05,1,5,22
-4.84583e-05,1,5,23
1.45547e-05,1,5,24
0.000141873,1,5,25
0.00012703,1,5,26
1.97324e-06,1,5,27
9.00911e-05,1,5,28
5.6143e-05,1,5,29
-0.000165351,1,5,30
3.27241e-05,1,5,31
-6.42672e-05,1,5,32
9.19827e-05,1,5,33
-1.09884e-06,1,5,34
0.000159574,1,5,35
-1.11901e-05,1,5,36
-3.98194e-05,1,5,37
0.000106628,1,5,38
2.95397e-05,1,5,39
0.000145453,1,5,40
-0.000168276,1,5,41
-0.000103097,1,5,42
-5.23583e-05,1,5,43
4.49666e-06,1,5,44
2.28104e-06,1,5,45
6.18858e-05,1,5,46
-3.49615e-05,1,5,47
-0.000110267,1,5,48
8.19858e-05,1,5,49
-8.72046e-05,1,5,50
0.000166318,1,5,51
-0.000134453,1,5,52
4.82147e-05,1,5,53
-8.8478e-06,1,5,54
-3.29851e-06,1,5,55
7.42725e-05,1,5,56
-5.85739e-05,1,5,57
3.09371e-05,1,5,58
5.62402e-07,1,5,59
-9.50582e-05,1,5,60
6.60259e-05,1,5,61
-2.82367e-05,1,5,62
-8.4132e-05,1,5,63
-6.04372e-05,1,5,64
5.385e-05,1,5,65
0.00025675,1,5,66
-0.000159861,1,5,67
2.50959e-05,1,5,68
3.67749e-05,1,5,69
-2.15392e-05,1,5,70
7.59182e-05,1,5,71
-7.9782e-05,1,5,72
0.000149188,1,5,73
-0.000147422,1,5,74
7.61391e-05,1,5,75
-3.7276e-05,1,5,76
2.41605e-05,1,5,77
-6.29651e-05,1,5,78
-3.29042e-05,1,5,79
1.48162e-05,1,5,80
-4.53118e-05,1,5,81
-8.09513e-05,1,5,82
-7.09496e-05,1,5,83
0.000223434,1,5,84
-8.89179e-05,1,5,85
-7.10961e-05,1,5,86
5.09381e-05,1,5,87
-0.000254145,1,5,88
2.66447e-05,1,5,89
0.000193971,1,5,90
1.44355e-08,1,5,91
6.41407e-05,1,5,92
-9.98836e-05,1,5,93
3.32802e-05,1,5,94
4.92504e-05,1,5,95
4.34156e-05,1,5,96
-0.000144352,1,5,97
7.04246e-05,1,5,98
-1.69664e-06,1,5,99
-0.0001046,1,5,100
-6.99655e-05,1,5,101
-2.57371e-06,1,5,102
3.46638e-06,1,5,103
0.000126864,1,5,104
-8.41727e-05,1,5,105
0.000112349,1,5,106
-7.54243e-06,1,5,107
7.811e-06,1,5,108
-0.000189093,1,5,109
2.34591e-05,1,5,110
-8.62719e-06,1,5,111
-0.000121178,1,5,112
-2.0501e-05,1,5,113
-6.07839e-06,1,5,114
5.29642e-05,1,5,115
-0.000192091,1,5,116
-9.772e-05,1,5,117
-8.92673e-07,1,5,118
-9.43721e-06,1,5,119
-0.000140862,1,5,120
1.41959e-05,1,5,121
0.000150768,1,5,122
-2.41946e-05,1,5,123
-5.04706e-05,1,5,124
-0.000102181,1,5,125
-7.32185e-05,1,5,126
4.00082e-05,1,5,127
-8.4015e-05,1,5,128
-2.61958e-06,1,5,129
7.21652e-05,1,5,130
-5.01587e-06,1,5,131
-0.000208036,1,5,132
-5.41105e-05,1,5,133
5.78301e-05,1,5,134
3.01271e-06,1,5,135
-0.000111918,1,5,136
6.54021e-06,1,5,137
-5.46844e-05,1,5,138
-5.0874e-05,1,5,139
-0.000133588,1,5,140
3.31153e-05,1,5,141
-4.74125e-06,1,5,142
-5.78375e-05,1,5,143
1.08755e-05,1,5,144
-4.19093e-05,1,5,145
-7.33044e-05,1,5,146
-5.93821e-05,1,5,147
-6.37657e-05,1,5,148
-7.9192e-05,1,5,149
0.000179464,1,5,150
1.76672e-05,1,5,151
2.41747e-05,1,5,152
4.90119e-05,1,5,153
9.09176e-05,1,5,154
1.51544e-05,1,5,155
2.98347e-05,1,5,156
0.000123129,1,5,157
-3.18813e-05,1,5,158
-5.28046e-05,1,5,159
4.12742e-05,1,5,160
-3.41269e-05,1,5,161
3.48021e-05,1,5,162
5.96383e-05,1,5,163
4.79473e-05,1,5,164
4.51227e-05,1,5,165
-8.75881e-05,1,5,166
-0.000116376,1,5,167
0.000112258,1,5,168
0.000105033,1,5,169
5.79007e-05,1,5,170
-5.89758e-05,1,5,171
-0.000101084,1,5,172
-4.49349e-05,1,5,173
1.35773e-05,1,5,174
-8.0301e-05,1,5,175
-7.24143e-05,1,5,176
-5.80536e-05,1,5,177
-8.03953e-06,1,5,178
8.58204e-05,1,5,179
4.4225e-05,1,5,180
1.96768e-05,1,5,181
6.93058e-05,1,5,182
-1.14447e-05,1,5,183
4.66333e-05,1,5,184
0.000114618,1,5,185
6.39141e-05,1,5,186
2.4543e-05,1,5,187
1.20533e-05,1,5,188
-3.64087e-05,1,5,189
0.000183935,1,5,190
-4.00509e-05,1,5,191
-9.58394e-05,1,5,192
-7.9737e-05,1,5,193
-6.42387e-05,1,5,194
0.000156117,1,5,195
-6.36355e-05,1,5,196
-2.02823e-05,1,5,197
4.17302e-06,1,5,198
-4.45126e-05,1,5,199
7.46374e-05,1,5,200
4.88355e-05,1,5,201
-3.63683e-05,1,5,202
-0.000136864,1,5,203
2.26921e-05,1,5,204
8.50554e-05,1,5,205
-0.000120947,1,5,206
5.872e-05,1,5,207
8.04805e-05,1,5,208
0.000141268,1,5,209
-9.61537e-05,1,5,210
-4.66129e-05,1,5,211
9.01544e-06,1,5,212
9.69344e-06,1,5,213
-7.78127e-05,1,5,214
-0.000100693,1,5,215
-1.29172e-05,1,5,216
-5.87936e-05,1,5,217
0.000103821,1,5,218
-6.09956e-05,1,5,219
8.94498e-05,1,5,220
9.45115e-05,1,5,221
-0.000128505,1,5,222
-4.9494e-05,1,5,223
-4.36889e-05,1,5,224
-7.0831e-05,1,5,225
-0.000152902,1,5,226
8.99582e-05,1,5,227
3.93863e-05,1,5,228
-3.44e-05,1,5,229
8.36037e-05,1,5,230
-8.62686e-05,1,5,231
1.90383e-05,1,5,232
0.000105029,1,5,233
6.92385e-05,1,5,234
-0.00015256,1,5,235
-1.11228e-05,1,5,236
1.29405e-05,1,5,237
-3.59837e-05,1,5,238
-0.000109606,1,5,239
-9.22428e-06,1,5,240
4.99608e-05,1,5,241
-0.000108295,1,5,242
-2.22258e-05,1,5,243
0.000162948,1,5,244
-3.69204e-05,1,5,245
-8.13974e-05,1,5,246
7.08315e-05,1,5,247
7.32477e-05,1,5,248
-0.000151626,1,5,249
1.86785e-05,1,5,250
-8.27657e-05,1,5,251
0.000149285,1,5,252
0.000208639,1,5,253
-8.355e-05,1,5,254
0.000200181,1,5,255
-0.000120059,1,5,256
-1.88106e-05,1,6,1
6.65955e-05,1,6,2
2.44033e-05,1,6,3
3.58017e-05,1,6,4
-2.18058e-05,1,6,5
2.20282e-05,1,6,6
9.15909e-06,1,6,7
-1.0189e-05,1,6,8
7.73016e-05,1,6,9
0.000114986,1,6,10
0.000149646,1,6,11
-0.00023387,1,6,12
-7.64147e-05,1,6,13
-7.88822e-05,1,6,14
-9.34928e-05,1,6,15
-2.89036e-05,1,6,16
-6.38497e-05,1,6,17
-1.02564e-05,1,6,18
6.80238e-05,1,6,19
8.09903e-05,1,6,20
-9.7729e-05,1,6,21
-4.7761e-05,1,6,22
2.207e-05,1,6,23
-9.07248e-06,1,6,24
-7.34442e-05,1,6,25
-2.4792e-05,1,6,26
-5.54188e-05,1,6,27
-0.000158401,1,6,28
-0.000131674,1,6,29
-0.000131401,1,6,30
0.000161567,1,6,31
-3.5034e-06,1,6,32
0.000106311,1,6,33
6.27388e-05,1,6,34
8.72299e-05,1,6,35
2.11264e-05,1,6,36
-3.42301e-05,1,6,37
6.97579e-05,1,6,38
-0.000100716,1,6,39
-5.44628e-05,1,6,40
3.59347e-05,1,6,41
0.000133589,1,6,42
-0.000108584,1,6,43
-3.32649e-05,1,6,44
3.54218e-05,1,6,45
1.38134e-05,1,6,46
0.000106503,1,6,47
3.69296e-05,1,6,48
-6.1564e-05,1,6,49
1.43074e-06,1,6,50
3.041e-06,1,6,51
-1.18787e-05,1,6,52
4.29847e-05,1,6,53
-0.000108531,1,6,54
5.92809e-05,1,6,55
-7.51636e-06,1,6,56
-9.04315e-05,1,6,57
0.000141919,1,6,58
-2.30516e-05,1,6,59
6.78923e-06,1,6,60
3.79236e-05,1,6,61
-0.000152063,1,6,62
4.06213e-05,1,6,63
5.02765e-05,1,6,64
0.000112594,1,6,65
0.000128137,1,6,66
-0.000125756,1,6,67
1.05312e-05,1,6,68
-5.09265e-05,1,6,69
2.98409e-05,1,6,70
2.57905e-05,1,6,71
-8.11836e-05,1,6,72
0.0001153,1,6,73
6.59632e-05,1,6,74
6.76948e-05,1,6,75
-0.000130828,1,6,76
-0.00011262,1,6,77
0.000101887,1,6,78
1.27056e-06,1,6,79
4.53305e-05,1,6,80
-8.13743e-05,1,6,81
-5.44182e-05,1,6,82
1.9791e-05,1,6,83
0.000133826,1,6,84
-0.000102773,1,6,85
2.49996e-05,1,6,86
2.97732e-05,1,6,87
-0.000129572,1,6,88
0.000129192,1,6,89
0.000223765,1,6,90
-9.91623e-05,1,6,91
3.2855e-05,1,6,92
-1.16029e-05,1,6,93
-8.31768e-05,1,6,94
-9.07925e-05,1,6,95
0.000253356,1,6,96
5.35444e-05,1,6,97
8.99073e-05,1,6,98
-1.28826e-05,1,6,99
1.56281e-05,1,6,100
-1.35128e-05,1,6,101
-6.94772e-05,1,6,102
0.000116717,1,6,103
6.96629e-07,1,6,104
-0.000128638,1,6,105
9.77189e-05,1,6,106
-3.59087e-05,1,6,107
7.80541e-06,1,6,108
-3.26312e-05,1,6,109
2.09024e-06,1,6,110
-0.000176927,1,6,111
3.63819e-05,1,6,112
8.55343e-05,1,6,113
3.70888e-06,1,6,114
-5.72657e-05,1,6,115
-6.51206e-05,1,6,116
3.48395e-05,1,6,117
7.93122e-05,1,6,118
-2.30513e-05,1,6,119
-9.24058e-05,1,6,120
0.000148317,1,6,121
2.0889e-05,1,6,122
-0.000112436,1,6,123
-1.74949e-06,1,6,124
2.79107e-05,1,6,125
0.000137689,1,6,126
2.49794e-05,1,6,127
9.28799e-05,1,6,128
-7.91814e-05,1,6,129
-3.03596e-05,1,6,130
-2.9176e-05,1,6,131
-9.09551e-05,1,6,132
2.60479e-05,1,6,133
5.78002e-05,1,6,134
-3.75829e-05,1,6,135
-1.97815e-05,1,6,136
0.000156924,1,6,137
1.18944e-05,1,6,138
-4.09653e-05,1,6,139
-4.77966e-06,1,6,140
6.1837e-05,1,6,141
3.51773e-05,1,6,142
-7.29747e-05,1,6,143
2.94534e-05,1,6,144
-4.75405e-05,1,6,145
-0.000199166,1,6,146
-5.49512e-05,1,6,147
0.00011342,1,6,148
1.65844e-05,1,6,149
0.000119958,1,6,150
-4.95457e-05,1,6,151
-5.48703e-05,1,6,152
-4.40069e-05,1,6,153
-0.00013232,1,6,154
-1.10678e-05,1,6,155
-3.26022e-05,1,6,156
2.95192e-05,1,6,157
-6.70102e-05,1,6,158
-5.68004e-05,1,6,159
4.4258e-05,1,6,160
0.000101565,1,6,161
-3.7558e-05,1,6,162
6.88514e-05,1,6,163
2.77115e-05,1,6,164
-1.84726e-05,1,6,165
6.67979e-06,1,6,166
2.38256e-05,1,6,167
-5.53911e-05,1,6,168
-4.54467e-05,1,6,169
-0.000216462,1,6,170
-2.11406e-05,1,6,171
-1.80886e-06,1,6,172
-2.24015e-05,1,6,173
-1.20921e-05,1,6,174
0.000100169,1,6,175
-2.95332e-05,1,6,176
-7.85096e-05,1,6,177
-5.64099e-05,1,6,178
3.5452e-05,1,6,179
-0.000122103,1,6,180
2.53565e-05,1,6,181
-5.15478e-05,1,6,182
-4.73846e-05,1,6,183
-0.000177943,1,6,184
9.91318e-05,1,6,185
-2.02775e-05,1,6,186
-9.05283e-05,1,6,187
-0.000160802,1,6,188
3.1586e-05,1,6,189
2.08627e-05,1,6,190
0.000123532,1,6,191
2.61997e-05,1,6,192
0.00012931,1,6,193
0.000128507,1,6,194
-0.000103171,1,6,195
0.000114865,1,6,196
-0.000114433,1,6,197
-0.000105036,1,6,198
8.2195e-05,1,6,199
2.43424e-06,1,6,200
-7.25683e-05,1,6,201
7.0503e-05,1,6,202
-7.8639e-05,1,6,203
6.73993e-05,1,6,204
-0.000127969,1,6,205
-0.000100283,1,6,206
-0.000118212,1,6,207
-7.90135e-05,1,6,208
0.000137716,1,6,209
0.000141569,1,6,210
9.92976e-06,1,6,211
7.19058e-05,1,6,212
0.000100329,1,6,213